 Entering Gaussian System, Link 0=g16
 Input=bdt_sp_16.com
 Output=bdt_sp_16.log
 Initial command:
 /usr/local/g16/l1.exe "/work/scr/Gau-17547.inp" -scrdir="/work/scr/"
 Default CPUs for threads: 0-27
 Default is to use a total of  28 processors:
                               28 via shared-memory
                                1 via Linda
 Entering Link 1 = /usr/local/g16/l1.exe PID=     17548.
  
 Copyright (c) 1988,1990,1992,1993,1995,1998,2003,2009,2016,
            Gaussian, Inc.  All Rights Reserved.
  
 This is part of the Gaussian(R) 16 program.  It is based on
 the Gaussian(R) 09 system (copyright 2009, Gaussian, Inc.),
 the Gaussian(R) 03 system (copyright 2003, Gaussian, Inc.),
 the Gaussian(R) 98 system (copyright 1998, Gaussian, Inc.),
 the Gaussian(R) 94 system (copyright 1995, Gaussian, Inc.),
 the Gaussian 92(TM) system (copyright 1992, Gaussian, Inc.),
 the Gaussian 90(TM) system (copyright 1990, Gaussian, Inc.),
 the Gaussian 88(TM) system (copyright 1988, Gaussian, Inc.),
 the Gaussian 86(TM) system (copyright 1986, Carnegie Mellon
 University), and the Gaussian 82(TM) system (copyright 1983,
 Carnegie Mellon University). Gaussian is a federally registered
 trademark of Gaussian, Inc.
  
 This software contains proprietary and confidential information,
 including trade secrets, belonging to Gaussian, Inc.
  
 This software is provided under written license and may be
 used, copied, transmitted, or stored only in accord with that
 written license.
  
 The following legend is applicable only to US Government
 contracts under FAR:
  
                    RESTRICTED RIGHTS LEGEND
  
 Use, reproduction and disclosure by the US Government is
 subject to restrictions as set forth in subparagraphs (a)
 and (c) of the Commercial Computer Software - Restricted
 Rights clause in FAR 52.227-19.
  
 Gaussian, Inc.
 340 Quinnipiac St., Bldg. 40, Wallingford CT 06492
  
  
 ---------------------------------------------------------------
 Warning -- This program may not be used in any manner that
 competes with the business of Gaussian, Inc. or will provide
 assistance to any competitor of Gaussian, Inc.  The licensee
 of this program is prohibited from giving any competitor of
 Gaussian, Inc. access to this program.  By using this program,
 the user acknowledges that Gaussian, Inc. is engaged in the
 business of creating and licensing software in the field of
 computational chemistry and represents and warrants to the
 licensee that it is not a competitor of Gaussian, Inc. and that
 it will not use this program in any manner prohibited above.
 ---------------------------------------------------------------
  

 Cite this work as:
 Gaussian 16, Revision A.03,
 M. J. Frisch, G. W. Trucks, H. B. Schlegel, G. E. Scuseria, 
 M. A. Robb, J. R. Cheeseman, G. Scalmani, V. Barone, 
 G. A. Petersson, H. Nakatsuji, X. Li, M. Caricato, A. V. Marenich, 
 J. Bloino, B. G. Janesko, R. Gomperts, B. Mennucci, H. P. Hratchian, 
 J. V. Ortiz, A. F. Izmaylov, J. L. Sonnenberg, D. Williams-Young, 
 F. Ding, F. Lipparini, F. Egidi, J. Goings, B. Peng, A. Petrone, 
 T. Henderson, D. Ranasinghe, V. G. Zakrzewski, J. Gao, N. Rega, 
 G. Zheng, W. Liang, M. Hada, M. Ehara, K. Toyota, R. Fukuda, 
 J. Hasegawa, M. Ishida, T. Nakajima, Y. Honda, O. Kitao, H. Nakai, 
 T. Vreven, K. Throssell, J. A. Montgomery, Jr., J. E. Peralta, 
 F. Ogliaro, M. J. Bearpark, J. J. Heyd, E. N. Brothers, K. N. Kudin, 
 V. N. Staroverov, T. A. Keith, R. Kobayashi, J. Normand, 
 K. Raghavachari, A. P. Rendell, J. C. Burant, S. S. Iyengar, 
 J. Tomasi, M. Cossi, J. M. Millam, M. Klene, C. Adamo, R. Cammi, 
 J. W. Ochterski, R. L. Martin, K. Morokuma, O. Farkas, 
 J. B. Foresman, and D. J. Fox, Gaussian, Inc., Wallingford CT, 2016.
 
 ******************************************
 Gaussian 16:  ES64L-G16RevA.03 25-Dec-2016
                28-Aug-2019 
 ******************************************
 SetSPE:  set environment variable "MP_BIND" = "yes"
 SetSPE:  set environment variable "MP_BLIST" = "0,1,2,3,4,5,6,7,8,9,10,11,12,13,14,15,16,17,18,19,20,21,22,23,24,25,26,27"
 Default route: MaxDisk=870GB
 -------------------------------------------------------
 # b3lyp/6-31G(d) pop=full gfinput iop(3/33=1) scf=tight
 -------------------------------------------------------
 1/38=1,172=1/1;
 2/12=2,17=6,18=5,40=1/2;
 3/5=1,6=6,7=1,11=2,24=10,25=1,30=1,33=1,74=-5/1,2,3;
 4//1;
 5/5=2,32=2,38=5/2;
 6/7=3,28=1/1;
 99/5=1,9=1/99;
 -------------------
 benzene-1,4-dithiol
 -------------------
 Symbolic Z-matrix:
 Charge =  0 Multiplicity = 1
 6                     1.40858  -0.00122   0.00004 
 6                     0.69813   1.20494   0. 
 6                     0.69459  -1.20562   0.00005 
 1                     1.22663   2.15437  -0.00003 
 1                     1.22492  -2.15412   0.00008 
 6                    -0.69463   1.20566   0.00002 
 6                    -0.6981   -1.2049    0.00003 
 1                    -1.22486   2.15421  0. 
 1                    -1.22667  -2.1543    0.00006 
 6                    -1.40858   0.00132   0.00002 
 16                   -3.1948    0.0836   -0.00004 
 16                    3.19479  -0.08367  -0.00008 
 1                     3.4171    1.24644   0.00072 
 1                    -3.41693  -1.24654   0.00014 
 
                          Input orientation:                          
 ---------------------------------------------------------------------
 Center     Atomic      Atomic             Coordinates (Angstroms)
 Number     Number       Type             X           Y           Z
 ---------------------------------------------------------------------
      1          6           0        1.408580   -0.001219    0.000041
      2          6           0        0.698128    1.204938    0.000003
      3          6           0        0.694594   -1.205621    0.000049
      4          1           0        1.226634    2.154373   -0.000034
      5          1           0        1.224915   -2.154124    0.000077
      6          6           0       -0.694627    1.205663    0.000022
      7          6           0       -0.698099   -1.204901    0.000032
      8          1           0       -1.224864    2.154214   -0.000004
      9          1           0       -1.226668   -2.154301    0.000059
     10          6           0       -1.408582    0.001316    0.000021
     11         16           0       -3.194797    0.083595   -0.000041
     12         16           0        3.194788   -0.083665   -0.000082
     13          1           0        3.417098    1.246439    0.000722
     14          1           0       -3.416928   -1.246540    0.000143
 ---------------------------------------------------------------------
                    Distance matrix (angstroms):
                    1          2          3          4          5
     1  C    0.000000
     2  C    1.399842   0.000000
     3  C    1.400129   2.410562   0.000000
     4  H    2.163257   1.086621   3.401856   0.000000
     5  H    2.160725   3.400118   1.086691   4.308497   0.000000
     6  C    2.424880   1.392755   2.782845   2.142731   3.869472
     7  C    2.426303   2.785099   1.392693   3.871604   2.144530
     8  H    3.403075   2.144533   3.869472   2.451498   4.956127
     9  H    3.402983   3.871605   2.142718   4.958161   2.451583
    10  C    2.817163   2.426300   2.424881   3.402943   3.403120
    11  S    4.604158   4.051207   4.097492   4.882333   4.953912
    12  S    1.788110   2.809592   2.740393   2.980343   2.857831
    13  H    2.364486   2.719287   3.663963   2.371176   4.045923
    14  H    4.983608   4.789930   4.111726   5.755769   4.729737
                    6          7          8          9         10
     6  C    0.000000
     7  C    2.410567   0.000000
     8  H    1.086692   3.400167   0.000000
     9  H    3.401827   1.086621   4.308515   0.000000
    10  C    1.400066   1.399909   2.160723   2.163279   0.000000
    11  S    2.740417   2.809577   2.857989   2.980220   1.788109
    12  S    4.097550   4.051141   4.953930   4.882295   4.604154
    13  H    4.111927   4.789981   4.729891   5.755831   4.983725
    14  H    3.663908   2.719148   4.046019   2.370922   2.364445
                   11         12         13         14
    11  S    0.000000
    12  S    6.391774   0.000000
    13  H    6.713372   1.348554   0.000000
    14  H    1.348555   6.713201   7.274535   0.000000
 Stoichiometry    C6H6S2
 Framework group  C1[X(C6H6S2)]
 Deg. of freedom    36
 Full point group                 C1      NOp   1
 Largest Abelian subgroup         C1      NOp   1
 Largest concise Abelian subgroup C1      NOp   1
                         Standard orientation:                         
 ---------------------------------------------------------------------
 Center     Atomic      Atomic             Coordinates (Angstroms)
 Number     Number       Type             X           Y           Z
 ---------------------------------------------------------------------
      1          6           0        1.408580   -0.001219    0.000041
      2          6           0        0.698128    1.204938    0.000003
      3          6           0        0.694594   -1.205621    0.000049
      4          1           0        1.226634    2.154373   -0.000034
      5          1           0        1.224915   -2.154124    0.000077
      6          6           0       -0.694627    1.205663    0.000022
      7          6           0       -0.698099   -1.204901    0.000032
      8          1           0       -1.224864    2.154214   -0.000004
      9          1           0       -1.226668   -2.154301    0.000059
     10          6           0       -1.408582    0.001316    0.000021
     11         16           0       -3.194797    0.083595   -0.000041
     12         16           0        3.194788   -0.083665   -0.000082
     13          1           0        3.417098    1.246439    0.000722
     14          1           0       -3.416928   -1.246540    0.000143
 ---------------------------------------------------------------------
 Rotational constants (GHZ):           5.4986671           0.6709287           0.5979668
 Standard basis: 6-31G(d) (6D, 7F)
                         Coordinates in L301:                         
 ---------------------------------------------------------------------
 Center     Atomic      Atomic             Coordinates (Angstroms)
 Number     Number       Type             X           Y           Z
 ---------------------------------------------------------------------
      1          6           0        1.408580   -0.001219    0.000041
      2          6           0        0.698128    1.204938    0.000003
      3          6           0        0.694594   -1.205621    0.000049
      4          1           0        1.226634    2.154373   -0.000034
      5          1           0        1.224915   -2.154124    0.000077
      6          6           0       -0.694627    1.205663    0.000022
      7          6           0       -0.698099   -1.204901    0.000032
      8          1           0       -1.224864    2.154214   -0.000004
      9          1           0       -1.226668   -2.154301    0.000059
     10          6           0       -1.408582    0.001316    0.000021
     11         16           0       -3.194797    0.083595   -0.000041
     12         16           0        3.194788   -0.083665   -0.000082
     13          1           0        3.417098    1.246439    0.000722
     14          1           0       -3.416928   -1.246540    0.000143
 ---------------------------------------------------------------------
 FixB: optimizing general contractions.
 Ernie: Thresh=  0.10000D-02 Tol=  0.10000D-05 Strict=F.
 IA=     1 ShT= 0 ShC= 0 NL=   1 NS=   0.
 IA=     1 L=0 SC=0 ISt=    0 NBk=    0 NP=    0 IndPr=    0.
 IA=     1 ShT= 1 ShC= 0 NL=   2 NS=   1.
 IA=     1 L=1 SC=0 ISt=    0 NBk=    0 NP=    0 IndPr=    0.
 IA=     1 ShT= 2 ShC= 2 NL=   1 NS=   1.
 IA=     1 L=2 SC=2 ISt=    0 NBk=    0 NP=    0 IndPr=    0.
 IA=     2 ShT= 0 ShC= 0 NL=   1 NS=   0.
 IA=     2 L=0 SC=0 ISt=    0 NBk=    0 NP=    0 IndPr=    0.
 IA=     2 ShT= 1 ShC= 0 NL=   2 NS=   1.
 IA=     2 L=1 SC=0 ISt=    0 NBk=    0 NP=    0 IndPr=    0.
 IA=     2 ShT= 2 ShC= 2 NL=   1 NS=   1.
 IA=     2 L=2 SC=2 ISt=    0 NBk=    0 NP=    0 IndPr=    0.
 IA=     3 ShT= 0 ShC= 0 NL=   1 NS=   0.
 IA=     3 L=0 SC=0 ISt=    0 NBk=    0 NP=    0 IndPr=    0.
 IA=     3 ShT= 1 ShC= 0 NL=   2 NS=   1.
 IA=     3 L=1 SC=0 ISt=    0 NBk=    0 NP=    0 IndPr=    0.
 IA=     3 ShT= 2 ShC= 2 NL=   1 NS=   1.
 IA=     3 L=2 SC=2 ISt=    0 NBk=    0 NP=    0 IndPr=    0.
 IA=     4 ShT= 0 ShC= 0 NL=   2 NS=   1.
 IA=     4 L=0 SC=0 ISt=    0 NBk=    0 NP=    0 IndPr=    0.
 IA=     5 ShT= 0 ShC= 0 NL=   2 NS=   1.
 IA=     5 L=0 SC=0 ISt=    0 NBk=    0 NP=    0 IndPr=    0.
 IA=     6 ShT= 0 ShC= 0 NL=   1 NS=   0.
 IA=     6 L=0 SC=0 ISt=    0 NBk=    0 NP=    0 IndPr=    0.
 IA=     6 ShT= 1 ShC= 0 NL=   2 NS=   1.
 IA=     6 L=1 SC=0 ISt=    0 NBk=    0 NP=    0 IndPr=    0.
 IA=     6 ShT= 2 ShC= 2 NL=   1 NS=   1.
 IA=     6 L=2 SC=2 ISt=    0 NBk=    0 NP=    0 IndPr=    0.
 IA=     7 ShT= 0 ShC= 0 NL=   1 NS=   0.
 IA=     7 L=0 SC=0 ISt=    0 NBk=    0 NP=    0 IndPr=    0.
 IA=     7 ShT= 1 ShC= 0 NL=   2 NS=   1.
 IA=     7 L=1 SC=0 ISt=    0 NBk=    0 NP=    0 IndPr=    0.
 IA=     7 ShT= 2 ShC= 2 NL=   1 NS=   1.
 IA=     7 L=2 SC=2 ISt=    0 NBk=    0 NP=    0 IndPr=    0.
 IA=     8 ShT= 0 ShC= 0 NL=   2 NS=   1.
 IA=     8 L=0 SC=0 ISt=    0 NBk=    0 NP=    0 IndPr=    0.
 IA=     9 ShT= 0 ShC= 0 NL=   2 NS=   1.
 IA=     9 L=0 SC=0 ISt=    0 NBk=    0 NP=    0 IndPr=    0.
 IA=    10 ShT= 0 ShC= 0 NL=   1 NS=   0.
 IA=    10 L=0 SC=0 ISt=    0 NBk=    0 NP=    0 IndPr=    0.
 IA=    10 ShT= 1 ShC= 0 NL=   2 NS=   1.
 IA=    10 L=1 SC=0 ISt=    0 NBk=    0 NP=    0 IndPr=    0.
 IA=    10 ShT= 2 ShC= 2 NL=   1 NS=   1.
 IA=    10 L=2 SC=2 ISt=    0 NBk=    0 NP=    0 IndPr=    0.
 IA=    11 ShT= 0 ShC= 0 NL=   1 NS=   0.
 IA=    11 L=0 SC=0 ISt=    0 NBk=    0 NP=    0 IndPr=    0.
 IA=    11 ShT= 1 ShC= 0 NL=   3 NS=   1.
 IA=    11 L=1 SC=0 ISt=    1 NBk=    2 NP=    9 IndPr=    0.
 DoElim1:  L=1 select primitive    1 from    2 using    1 C=-2.38D-03
 DoElim2:  L=1 select primitive    9 from    1 using    2 C= 1.05D+00
 DoElim1:  L=1 select primitive    1 from    2 using    1 C= 4.06D-03
 DoElim2:  L=1 select primitive    9 from    1 using    2 C= 7.54D-01
 Delete L=1 primitive    7 from    2 C=  0.00D+00.
 Delete L=1 primitive    5 from    2 C=  0.00D+00.
 Delete L=1 primitive    4 from    2 C=  0.00D+00.
 Delete L=1 primitive    3 from    2 C=  0.00D+00.
 Delete L=1 primitive    2 from    2 C=  0.00D+00.
 Delete L=1 primitive    1 from    2 C=  0.00D+00.
 Delete L=1 primitive    9 from    1 C=  0.00D+00.
 Delete L=1 primitive    8 from    1 C=  0.00D+00.
 Delete L=1 primitive    6 from    1 C=  0.00D+00.
 IA=    11 L=1 SC=0 ISt=    0 NBk=    0 NP=    0 IndPr=    9.
 IA=    11 ShT= 2 ShC= 2 NL=   1 NS=   1.
 IA=    11 L=2 SC=2 ISt=    0 NBk=    0 NP=    0 IndPr=    0.
 IA=    12 ShT= 0 ShC= 0 NL=   1 NS=   0.
 IA=    12 L=0 SC=0 ISt=    0 NBk=    0 NP=    0 IndPr=    0.
 IA=    12 ShT= 1 ShC= 0 NL=   3 NS=   1.
 IA=    12 L=1 SC=0 ISt=    1 NBk=    2 NP=    9 IndPr=    0.
 DoElim1:  L=1 select primitive    1 from    2 using    1 C=-2.38D-03
 DoElim2:  L=1 select primitive    9 from    1 using    2 C= 1.05D+00
 DoElim1:  L=1 select primitive    1 from    2 using    1 C= 4.06D-03
 DoElim2:  L=1 select primitive    9 from    1 using    2 C= 7.54D-01
 Delete L=1 primitive    7 from    2 C=  0.00D+00.
 Delete L=1 primitive    5 from    2 C=  0.00D+00.
 Delete L=1 primitive    4 from    2 C=  0.00D+00.
 Delete L=1 primitive    3 from    2 C=  0.00D+00.
 Delete L=1 primitive    2 from    2 C=  0.00D+00.
 Delete L=1 primitive    1 from    2 C=  0.00D+00.
 Delete L=1 primitive    9 from    1 C=  0.00D+00.
 Delete L=1 primitive    8 from    1 C=  0.00D+00.
 Delete L=1 primitive    6 from    1 C=  0.00D+00.
 IA=    12 L=1 SC=0 ISt=    0 NBk=    0 NP=    0 IndPr=    9.
 IA=    12 ShT= 2 ShC= 2 NL=   1 NS=   1.
 IA=    12 L=2 SC=2 ISt=    0 NBk=    0 NP=    0 IndPr=    0.
 IA=    13 ShT= 0 ShC= 0 NL=   2 NS=   1.
 IA=    13 L=0 SC=0 ISt=    0 NBk=    0 NP=    0 IndPr=    0.
 IA=    14 ShT= 0 ShC= 0 NL=   2 NS=   1.
 IA=    14 L=0 SC=0 ISt=    0 NBk=    0 NP=    0 IndPr=    0.
 AO basis set in the form of general basis input (Overlap normalization):
      1 0
 S   6 1.00       0.000000000000
      0.3047524880D+04  0.1834737132D-02
      0.4573695180D+03  0.1403732281D-01
      0.1039486850D+03  0.6884262226D-01
      0.2921015530D+02  0.2321844432D+00
      0.9286662960D+01  0.4679413484D+00
      0.3163926960D+01  0.3623119853D+00
 SP   3 1.00       0.000000000000
      0.7868272350D+01 -0.1193324198D+00  0.6899906659D-01
      0.1881288540D+01 -0.1608541517D+00  0.3164239610D+00
      0.5442492580D+00  0.1143456438D+01  0.7443082909D+00
 SP   1 1.00       0.000000000000
      0.1687144782D+00  0.1000000000D+01  0.1000000000D+01
 D   1 1.00       0.000000000000
      0.8000000000D+00  0.1000000000D+01
 ****
      2 0
 S   6 1.00       0.000000000000
      0.3047524880D+04  0.1834737132D-02
      0.4573695180D+03  0.1403732281D-01
      0.1039486850D+03  0.6884262226D-01
      0.2921015530D+02  0.2321844432D+00
      0.9286662960D+01  0.4679413484D+00
      0.3163926960D+01  0.3623119853D+00
 SP   3 1.00       0.000000000000
      0.7868272350D+01 -0.1193324198D+00  0.6899906659D-01
      0.1881288540D+01 -0.1608541517D+00  0.3164239610D+00
      0.5442492580D+00  0.1143456438D+01  0.7443082909D+00
 SP   1 1.00       0.000000000000
      0.1687144782D+00  0.1000000000D+01  0.1000000000D+01
 D   1 1.00       0.000000000000
      0.8000000000D+00  0.1000000000D+01
 ****
      3 0
 S   6 1.00       0.000000000000
      0.3047524880D+04  0.1834737132D-02
      0.4573695180D+03  0.1403732281D-01
      0.1039486850D+03  0.6884262226D-01
      0.2921015530D+02  0.2321844432D+00
      0.9286662960D+01  0.4679413484D+00
      0.3163926960D+01  0.3623119853D+00
 SP   3 1.00       0.000000000000
      0.7868272350D+01 -0.1193324198D+00  0.6899906659D-01
      0.1881288540D+01 -0.1608541517D+00  0.3164239610D+00
      0.5442492580D+00  0.1143456438D+01  0.7443082909D+00
 SP   1 1.00       0.000000000000
      0.1687144782D+00  0.1000000000D+01  0.1000000000D+01
 D   1 1.00       0.000000000000
      0.8000000000D+00  0.1000000000D+01
 ****
      4 0
 S   3 1.00       0.000000000000
      0.1873113696D+02  0.3349460434D-01
      0.2825394365D+01  0.2347269535D+00
      0.6401216923D+00  0.8137573261D+00
 S   1 1.00       0.000000000000
      0.1612777588D+00  0.1000000000D+01
 ****
      5 0
 S   3 1.00       0.000000000000
      0.1873113696D+02  0.3349460434D-01
      0.2825394365D+01  0.2347269535D+00
      0.6401216923D+00  0.8137573261D+00
 S   1 1.00       0.000000000000
      0.1612777588D+00  0.1000000000D+01
 ****
      6 0
 S   6 1.00       0.000000000000
      0.3047524880D+04  0.1834737132D-02
      0.4573695180D+03  0.1403732281D-01
      0.1039486850D+03  0.6884262226D-01
      0.2921015530D+02  0.2321844432D+00
      0.9286662960D+01  0.4679413484D+00
      0.3163926960D+01  0.3623119853D+00
 SP   3 1.00       0.000000000000
      0.7868272350D+01 -0.1193324198D+00  0.6899906659D-01
      0.1881288540D+01 -0.1608541517D+00  0.3164239610D+00
      0.5442492580D+00  0.1143456438D+01  0.7443082909D+00
 SP   1 1.00       0.000000000000
      0.1687144782D+00  0.1000000000D+01  0.1000000000D+01
 D   1 1.00       0.000000000000
      0.8000000000D+00  0.1000000000D+01
 ****
      7 0
 S   6 1.00       0.000000000000
      0.3047524880D+04  0.1834737132D-02
      0.4573695180D+03  0.1403732281D-01
      0.1039486850D+03  0.6884262226D-01
      0.2921015530D+02  0.2321844432D+00
      0.9286662960D+01  0.4679413484D+00
      0.3163926960D+01  0.3623119853D+00
 SP   3 1.00       0.000000000000
      0.7868272350D+01 -0.1193324198D+00  0.6899906659D-01
      0.1881288540D+01 -0.1608541517D+00  0.3164239610D+00
      0.5442492580D+00  0.1143456438D+01  0.7443082909D+00
 SP   1 1.00       0.000000000000
      0.1687144782D+00  0.1000000000D+01  0.1000000000D+01
 D   1 1.00       0.000000000000
      0.8000000000D+00  0.1000000000D+01
 ****
      8 0
 S   3 1.00       0.000000000000
      0.1873113696D+02  0.3349460434D-01
      0.2825394365D+01  0.2347269535D+00
      0.6401216923D+00  0.8137573261D+00
 S   1 1.00       0.000000000000
      0.1612777588D+00  0.1000000000D+01
 ****
      9 0
 S   3 1.00       0.000000000000
      0.1873113696D+02  0.3349460434D-01
      0.2825394365D+01  0.2347269535D+00
      0.6401216923D+00  0.8137573261D+00
 S   1 1.00       0.000000000000
      0.1612777588D+00  0.1000000000D+01
 ****
     10 0
 S   6 1.00       0.000000000000
      0.3047524880D+04  0.1834737132D-02
      0.4573695180D+03  0.1403732281D-01
      0.1039486850D+03  0.6884262226D-01
      0.2921015530D+02  0.2321844432D+00
      0.9286662960D+01  0.4679413484D+00
      0.3163926960D+01  0.3623119853D+00
 SP   3 1.00       0.000000000000
      0.7868272350D+01 -0.1193324198D+00  0.6899906659D-01
      0.1881288540D+01 -0.1608541517D+00  0.3164239610D+00
      0.5442492580D+00  0.1143456438D+01  0.7443082909D+00
 SP   1 1.00       0.000000000000
      0.1687144782D+00  0.1000000000D+01  0.1000000000D+01
 D   1 1.00       0.000000000000
      0.8000000000D+00  0.1000000000D+01
 ****
     11 0
 S   6 1.00       0.000000000000
      0.2191710000D+05  0.1869240849D-02
      0.3301490000D+04  0.1423030646D-01
      0.7541460000D+03  0.6969623166D-01
      0.2127110000D+03  0.2384871083D+00
      0.6798960000D+02  0.4833072195D+00
      0.2305150000D+02  0.3380741536D+00
 SP   6 1.00       0.000000000000
      0.4237350000D+03 -0.2376770499D-02  0.4061009982D-02
      0.1007100000D+03 -0.3169300665D-01  0.3068129986D-01
      0.3215990000D+02 -0.1133170238D+00  0.1304519994D+00
      0.1180790000D+02  0.5609001177D-01  0.3272049985D+00
      0.4631100000D+01  0.5922551243D+00  0.4528509980D+00
      0.1870250000D+01  0.4550060955D+00  0.2560419989D+00
 SP   3 1.00       0.000000000000
      0.2615840000D+01 -0.2503731142D+00 -0.1451048955D-01
      0.9221670000D+00  0.6695676310D-01  0.3102627765D+00
      0.3412870000D+00  0.1054506269D+01  0.7544824565D+00
 SP   1 1.00       0.000000000000
      0.1171670000D+00  0.1000000000D+01  0.1000000000D+01
 D   1 1.00       0.000000000000
      0.6500000000D+00  0.1000000000D+01
 ****
     12 0
 S   6 1.00       0.000000000000
      0.2191710000D+05  0.1869240849D-02
      0.3301490000D+04  0.1423030646D-01
      0.7541460000D+03  0.6969623166D-01
      0.2127110000D+03  0.2384871083D+00
      0.6798960000D+02  0.4833072195D+00
      0.2305150000D+02  0.3380741536D+00
 SP   6 1.00       0.000000000000
      0.4237350000D+03 -0.2376770499D-02  0.4061009982D-02
      0.1007100000D+03 -0.3169300665D-01  0.3068129986D-01
      0.3215990000D+02 -0.1133170238D+00  0.1304519994D+00
      0.1180790000D+02  0.5609001177D-01  0.3272049985D+00
      0.4631100000D+01  0.5922551243D+00  0.4528509980D+00
      0.1870250000D+01  0.4550060955D+00  0.2560419989D+00
 SP   3 1.00       0.000000000000
      0.2615840000D+01 -0.2503731142D+00 -0.1451048955D-01
      0.9221670000D+00  0.6695676310D-01  0.3102627765D+00
      0.3412870000D+00  0.1054506269D+01  0.7544824565D+00
 SP   1 1.00       0.000000000000
      0.1171670000D+00  0.1000000000D+01  0.1000000000D+01
 D   1 1.00       0.000000000000
      0.6500000000D+00  0.1000000000D+01
 ****
     13 0
 S   3 1.00       0.000000000000
      0.1873113696D+02  0.3349460434D-01
      0.2825394365D+01  0.2347269535D+00
      0.6401216923D+00  0.8137573261D+00
 S   1 1.00       0.000000000000
      0.1612777588D+00  0.1000000000D+01
 ****
     14 0
 S   3 1.00       0.000000000000
      0.1873113696D+02  0.3349460434D-01
      0.2825394365D+01  0.2347269535D+00
      0.6401216923D+00  0.8137573261D+00
 S   1 1.00       0.000000000000
      0.1612777588D+00  0.1000000000D+01
 ****

 LdAtmC:  AtmChg=     6.000000     6.000000     6.000000     1.000000     1.000000
 LdAtmC:  AtmChg=     6.000000     6.000000     1.000000     1.000000     6.000000
 LdAtmC:  AtmChg=    16.000000    16.000000     1.000000     1.000000
 AtZEff=     -3.6000000     -3.6000000     -3.6000000     -1.0000000     -1.0000000
 AtZEff=     -3.6000000     -3.6000000     -1.0000000     -1.0000000     -3.6000000
 AtZEff=    -13.6000000    -13.6000000     -1.0000000     -1.0000000
 NEqShl: 
              1
     1            1
     2            2
     3            3
     4            4
     5            5
     6            6
     7            7
     8            8
     9            9
    10           10
    11           11
    12           12
    13           13
    14           14
    15           15
    16           16
    17           17
    18           18
    19           19
    20           20
    21           21
    22           22
    23           23
    24           24
    25           25
    26           26
    27           27
    28           28
    29           29
    30           30
    31           31
    32           32
    33           33
    34           34
    35           35
    36           36
    37           37
    38           38
    39           39
    40           40
    41           41
    42           42
    43           43
    44           44
    45           45
    46           46
 NEqBas: 
              1
     1            1
     2            2
     3            3
     4            4
     5            5
     6            6
     7            7
     8            8
     9            9
    10           10
    11           11
    12           12
    13           13
    14           14
    15           15
    16           16
    17           17
    18           18
    19           19
    20           20
    21           21
    22           22
    23           23
    24           24
    25           25
    26           26
    27           27
    28           28
    29           29
    30           30
    31           31
    32           32
    33           33
    34           34
    35           35
    36           36
    37           37
    38           38
    39           39
    40           40
    41           41
    42           42
    43           43
    44           44
    45           45
    46           46
    47           47
    48           48
    49           49
    50           50
    51           51
    52           52
    53           53
    54           54
    55           55
    56           56
    57           57
    58           58
    59           59
    60           60
    61           61
    62           62
    63           63
    64           64
    65           65
    66           66
    67           67
    68           68
    69           69
    70           70
    71           71
    72           72
    73           73
    74           74
    75           75
    76           76
    77           77
    78           78
    79           79
    80           80
    81           81
    82           82
    83           83
    84           84
    85           85
    86           86
    87           87
    88           88
    89           89
    90           90
    91           91
    92           92
    93           93
    94           94
    95           95
    96           96
    97           97
    98           98
    99           99
   100          100
   101          101
   102          102
   103          103
   104          104
   105          105
   106          106
   107          107
   108          108
   109          109
   110          110
   111          111
   112          112
   113          113
   114          114
   115          115
   116          116
   117          117
   118          118
   119          119
   120          120
   121          121
   122          122
   123          123
   124          124
   125          125
   126          126
   127          127
   128          128
   129          129
   130          130
   131          131
   132          132
   133          133
   134          134
   135          135
   136          136
   137          137
   138          138
   139          139
   140          140
 There are   140 symmetry adapted cartesian basis functions of A   symmetry.
 Order= 1
 Reordered character table:
              1            2
     1            1            1
 NEqShl: 
              1
     1            1
     2            2
     3            3
     4            4
     5            5
     6            6
     7            7
     8            8
     9            9
    10           10
    11           11
    12           12
    13           13
    14           14
    15           15
    16           16
    17           17
    18           18
    19           19
    20           20
    21           21
    22           22
    23           23
    24           24
    25           25
    26           26
    27           27
    28           28
    29           29
    30           30
    31           31
    32           32
    33           33
    34           34
    35           35
    36           36
    37           37
    38           38
    39           39
    40           40
    41           41
    42           42
    43           43
    44           44
    45           45
    46           46
 NEqBas: 
              1
     1            1
     2            2
     3            3
     4            4
     5            5
     6            6
     7            7
     8            8
     9            9
    10           10
    11           11
    12           12
    13           13
    14           14
    15           15
    16           16
    17           17
    18           18
    19           19
    20           20
    21           21
    22           22
    23           23
    24           24
    25           25
    26           26
    27           27
    28           28
    29           29
    30           30
    31           31
    32           32
    33           33
    34           34
    35           35
    36           36
    37           37
    38           38
    39           39
    40           40
    41           41
    42           42
    43           43
    44           44
    45           45
    46           46
    47           47
    48           48
    49           49
    50           50
    51           51
    52           52
    53           53
    54           54
    55           55
    56           56
    57           57
    58           58
    59           59
    60           60
    61           61
    62           62
    63           63
    64           64
    65           65
    66           66
    67           67
    68           68
    69           69
    70           70
    71           71
    72           72
    73           73
    74           74
    75           75
    76           76
    77           77
    78           78
    79           79
    80           80
    81           81
    82           82
    83           83
    84           84
    85           85
    86           86
    87           87
    88           88
    89           89
    90           90
    91           91
    92           92
    93           93
    94           94
    95           95
    96           96
    97           97
    98           98
    99           99
   100          100
   101          101
   102          102
   103          103
   104          104
   105          105
   106          106
   107          107
   108          108
   109          109
   110          110
   111          111
   112          112
   113          113
   114          114
   115          115
   116          116
   117          117
   118          118
   119          119
   120          120
   121          121
   122          122
   123          123
   124          124
   125          125
   126          126
   127          127
   128          128
   129          129
   130          130
   131          131
   132          132
   133          133
   134          134
   135          135
   136          136
   137          137
   138          138
   139          139
   140          140
 There are   140 symmetry adapted basis functions of A   symmetry.
 Order= 1
 Reordered character table:
              1            2
     1            1            1
   140 basis functions,   296 primitive gaussians,   140 cartesian basis functions
    37 alpha electrons       37 beta electrons
       nuclear repulsion energy       453.4376912792 Hartrees.
 IS=     1 IAt=     1 ISR=     1 T=0 IP=      1 IndIP=      1 IndIPD=      0 C=  5.363452D-01  0.000000D+00                             NZ=T
 IS=     1 IAt=     1 ISR=     1 T=0 IP=      2 IndIP=      2 IndIPD=      1 C=  9.894521D-01  0.000000D+00                             NZ=T
 IS=     1 IAt=     1 ISR=     1 T=0 IP=      3 IndIP=      3 IndIPD=      2 C=  1.597283D+00  0.000000D+00                             NZ=T
 IS=     1 IAt=     1 ISR=     1 T=0 IP=      4 IndIP=      4 IndIPD=      3 C=  2.079187D+00  0.000000D+00                             NZ=T
 IS=     1 IAt=     1 ISR=     1 T=0 IP=      5 IndIP=      5 IndIPD=      4 C=  1.774174D+00  0.000000D+00                             NZ=T
 IS=     1 IAt=     1 ISR=     1 T=0 IP=      6 IndIP=      6 IndIPD=      5 C=  6.125797D-01  0.000000D+00                             NZ=T
 IS=     2 IAt=     1 ISR=     2 T=1 IP=      1 IndIP=      7 IndIPD=      0 C= -3.995564D-01  1.296082D+00                             NZ=T
 IS=     2 IAt=     1 ISR=     2 T=1 IP=      2 IndIP=      8 IndIPD=      1 C= -1.841552D-01  9.937536D-01                             NZ=T
 IS=     2 IAt=     1 ISR=     2 T=1 IP=      3 IndIP=      9 IndIPD=      2 C=  5.163903D-01  4.959527D-01                             NZ=T
 IS=     3 IAt=     1 ISR=     3 T=1 IP=      1 IndIP=     10 IndIPD=      0 C=  1.876179D-01  1.541276D-01                             NZ=T
 IS=     4 IAt=     1 ISR=     4 T=2 IP=      1 IndIP=     11 IndIPD=      1 C=  0.000000D+00  0.000000D+00  1.113825D+00  0.000000D+00 NZ=T
 IS=     5 IAt=     2 ISR=     1 T=0 IP=      1 IndIP=     12 IndIPD=      0 C=  5.363452D-01  0.000000D+00                             NZ=T
 IS=     5 IAt=     2 ISR=     1 T=0 IP=      2 IndIP=     13 IndIPD=      1 C=  9.894521D-01  0.000000D+00                             NZ=T
 IS=     5 IAt=     2 ISR=     1 T=0 IP=      3 IndIP=     14 IndIPD=      2 C=  1.597283D+00  0.000000D+00                             NZ=T
 IS=     5 IAt=     2 ISR=     1 T=0 IP=      4 IndIP=     15 IndIPD=      3 C=  2.079187D+00  0.000000D+00                             NZ=T
 IS=     5 IAt=     2 ISR=     1 T=0 IP=      5 IndIP=     16 IndIPD=      4 C=  1.774174D+00  0.000000D+00                             NZ=T
 IS=     5 IAt=     2 ISR=     1 T=0 IP=      6 IndIP=     17 IndIPD=      5 C=  6.125797D-01  0.000000D+00                             NZ=T
 IS=     6 IAt=     2 ISR=     2 T=1 IP=      1 IndIP=     18 IndIPD=      0 C= -3.995564D-01  1.296082D+00                             NZ=T
 IS=     6 IAt=     2 ISR=     2 T=1 IP=      2 IndIP=     19 IndIPD=      1 C= -1.841552D-01  9.937536D-01                             NZ=T
 IS=     6 IAt=     2 ISR=     2 T=1 IP=      3 IndIP=     20 IndIPD=      2 C=  5.163903D-01  4.959527D-01                             NZ=T
 IS=     7 IAt=     2 ISR=     3 T=1 IP=      1 IndIP=     21 IndIPD=      0 C=  1.876179D-01  1.541276D-01                             NZ=T
 IS=     8 IAt=     2 ISR=     4 T=2 IP=      1 IndIP=     22 IndIPD=      2 C=  0.000000D+00  0.000000D+00  1.113825D+00  0.000000D+00 NZ=T
 IS=     9 IAt=     3 ISR=     1 T=0 IP=      1 IndIP=     23 IndIPD=      0 C=  5.363452D-01  0.000000D+00                             NZ=T
 IS=     9 IAt=     3 ISR=     1 T=0 IP=      2 IndIP=     24 IndIPD=      1 C=  9.894521D-01  0.000000D+00                             NZ=T
 IS=     9 IAt=     3 ISR=     1 T=0 IP=      3 IndIP=     25 IndIPD=      2 C=  1.597283D+00  0.000000D+00                             NZ=T
 IS=     9 IAt=     3 ISR=     1 T=0 IP=      4 IndIP=     26 IndIPD=      3 C=  2.079187D+00  0.000000D+00                             NZ=T
 IS=     9 IAt=     3 ISR=     1 T=0 IP=      5 IndIP=     27 IndIPD=      4 C=  1.774174D+00  0.000000D+00                             NZ=T
 IS=     9 IAt=     3 ISR=     1 T=0 IP=      6 IndIP=     28 IndIPD=      5 C=  6.125797D-01  0.000000D+00                             NZ=T
 IS=    10 IAt=     3 ISR=     2 T=1 IP=      1 IndIP=     29 IndIPD=      0 C= -3.995564D-01  1.296082D+00                             NZ=T
 IS=    10 IAt=     3 ISR=     2 T=1 IP=      2 IndIP=     30 IndIPD=      1 C= -1.841552D-01  9.937536D-01                             NZ=T
 IS=    10 IAt=     3 ISR=     2 T=1 IP=      3 IndIP=     31 IndIPD=      2 C=  5.163903D-01  4.959527D-01                             NZ=T
 IS=    11 IAt=     3 ISR=     3 T=1 IP=      1 IndIP=     32 IndIPD=      0 C=  1.876179D-01  1.541276D-01                             NZ=T
 IS=    12 IAt=     3 ISR=     4 T=2 IP=      1 IndIP=     33 IndIPD=      3 C=  0.000000D+00  0.000000D+00  1.113825D+00  0.000000D+00 NZ=T
 IS=    13 IAt=     4 ISR=     1 T=0 IP=      1 IndIP=     34 IndIPD=      0 C=  2.149354D-01  0.000000D+00                             NZ=T
 IS=    13 IAt=     4 ISR=     1 T=0 IP=      2 IndIP=     35 IndIPD=      1 C=  3.645712D-01  0.000000D+00                             NZ=T
 IS=    13 IAt=     4 ISR=     1 T=0 IP=      3 IndIP=     36 IndIPD=      2 C=  4.150514D-01  0.000000D+00                             NZ=T
 IS=    14 IAt=     4 ISR=     2 T=0 IP=      1 IndIP=     37 IndIPD=      0 C=  1.813806D-01  0.000000D+00                             NZ=T
 IS=    15 IAt=     5 ISR=     1 T=0 IP=      1 IndIP=     38 IndIPD=      0 C=  2.149354D-01  0.000000D+00                             NZ=T
 IS=    15 IAt=     5 ISR=     1 T=0 IP=      2 IndIP=     39 IndIPD=      1 C=  3.645712D-01  0.000000D+00                             NZ=T
 IS=    15 IAt=     5 ISR=     1 T=0 IP=      3 IndIP=     40 IndIPD=      2 C=  4.150514D-01  0.000000D+00                             NZ=T
 IS=    16 IAt=     5 ISR=     2 T=0 IP=      1 IndIP=     41 IndIPD=      0 C=  1.813806D-01  0.000000D+00                             NZ=T
 IS=    17 IAt=     6 ISR=     1 T=0 IP=      1 IndIP=     42 IndIPD=      0 C=  5.363452D-01  0.000000D+00                             NZ=T
 IS=    17 IAt=     6 ISR=     1 T=0 IP=      2 IndIP=     43 IndIPD=      1 C=  9.894521D-01  0.000000D+00                             NZ=T
 IS=    17 IAt=     6 ISR=     1 T=0 IP=      3 IndIP=     44 IndIPD=      2 C=  1.597283D+00  0.000000D+00                             NZ=T
 IS=    17 IAt=     6 ISR=     1 T=0 IP=      4 IndIP=     45 IndIPD=      3 C=  2.079187D+00  0.000000D+00                             NZ=T
 IS=    17 IAt=     6 ISR=     1 T=0 IP=      5 IndIP=     46 IndIPD=      4 C=  1.774174D+00  0.000000D+00                             NZ=T
 IS=    17 IAt=     6 ISR=     1 T=0 IP=      6 IndIP=     47 IndIPD=      5 C=  6.125797D-01  0.000000D+00                             NZ=T
 IS=    18 IAt=     6 ISR=     2 T=1 IP=      1 IndIP=     48 IndIPD=      0 C= -3.995564D-01  1.296082D+00                             NZ=T
 IS=    18 IAt=     6 ISR=     2 T=1 IP=      2 IndIP=     49 IndIPD=      1 C= -1.841552D-01  9.937536D-01                             NZ=T
 IS=    18 IAt=     6 ISR=     2 T=1 IP=      3 IndIP=     50 IndIPD=      2 C=  5.163903D-01  4.959527D-01                             NZ=T
 IS=    19 IAt=     6 ISR=     3 T=1 IP=      1 IndIP=     51 IndIPD=      0 C=  1.876179D-01  1.541276D-01                             NZ=T
 IS=    20 IAt=     6 ISR=     4 T=2 IP=      1 IndIP=     52 IndIPD=      4 C=  0.000000D+00  0.000000D+00  1.113825D+00  0.000000D+00 NZ=T
 IS=    21 IAt=     7 ISR=     1 T=0 IP=      1 IndIP=     53 IndIPD=      0 C=  5.363452D-01  0.000000D+00                             NZ=T
 IS=    21 IAt=     7 ISR=     1 T=0 IP=      2 IndIP=     54 IndIPD=      1 C=  9.894521D-01  0.000000D+00                             NZ=T
 IS=    21 IAt=     7 ISR=     1 T=0 IP=      3 IndIP=     55 IndIPD=      2 C=  1.597283D+00  0.000000D+00                             NZ=T
 IS=    21 IAt=     7 ISR=     1 T=0 IP=      4 IndIP=     56 IndIPD=      3 C=  2.079187D+00  0.000000D+00                             NZ=T
 IS=    21 IAt=     7 ISR=     1 T=0 IP=      5 IndIP=     57 IndIPD=      4 C=  1.774174D+00  0.000000D+00                             NZ=T
 IS=    21 IAt=     7 ISR=     1 T=0 IP=      6 IndIP=     58 IndIPD=      5 C=  6.125797D-01  0.000000D+00                             NZ=T
 IS=    22 IAt=     7 ISR=     2 T=1 IP=      1 IndIP=     59 IndIPD=      0 C= -3.995564D-01  1.296082D+00                             NZ=T
 IS=    22 IAt=     7 ISR=     2 T=1 IP=      2 IndIP=     60 IndIPD=      1 C= -1.841552D-01  9.937536D-01                             NZ=T
 IS=    22 IAt=     7 ISR=     2 T=1 IP=      3 IndIP=     61 IndIPD=      2 C=  5.163903D-01  4.959527D-01                             NZ=T
 IS=    23 IAt=     7 ISR=     3 T=1 IP=      1 IndIP=     62 IndIPD=      0 C=  1.876179D-01  1.541276D-01                             NZ=T
 IS=    24 IAt=     7 ISR=     4 T=2 IP=      1 IndIP=     63 IndIPD=      5 C=  0.000000D+00  0.000000D+00  1.113825D+00  0.000000D+00 NZ=T
 IS=    25 IAt=     8 ISR=     1 T=0 IP=      1 IndIP=     64 IndIPD=      0 C=  2.149354D-01  0.000000D+00                             NZ=T
 IS=    25 IAt=     8 ISR=     1 T=0 IP=      2 IndIP=     65 IndIPD=      1 C=  3.645712D-01  0.000000D+00                             NZ=T
 IS=    25 IAt=     8 ISR=     1 T=0 IP=      3 IndIP=     66 IndIPD=      2 C=  4.150514D-01  0.000000D+00                             NZ=T
 IS=    26 IAt=     8 ISR=     2 T=0 IP=      1 IndIP=     67 IndIPD=      0 C=  1.813806D-01  0.000000D+00                             NZ=T
 IS=    27 IAt=     9 ISR=     1 T=0 IP=      1 IndIP=     68 IndIPD=      0 C=  2.149354D-01  0.000000D+00                             NZ=T
 IS=    27 IAt=     9 ISR=     1 T=0 IP=      2 IndIP=     69 IndIPD=      1 C=  3.645712D-01  0.000000D+00                             NZ=T
 IS=    27 IAt=     9 ISR=     1 T=0 IP=      3 IndIP=     70 IndIPD=      2 C=  4.150514D-01  0.000000D+00                             NZ=T
 IS=    28 IAt=     9 ISR=     2 T=0 IP=      1 IndIP=     71 IndIPD=      0 C=  1.813806D-01  0.000000D+00                             NZ=T
 IS=    29 IAt=    10 ISR=     1 T=0 IP=      1 IndIP=     72 IndIPD=      0 C=  5.363452D-01  0.000000D+00                             NZ=T
 IS=    29 IAt=    10 ISR=     1 T=0 IP=      2 IndIP=     73 IndIPD=      1 C=  9.894521D-01  0.000000D+00                             NZ=T
 IS=    29 IAt=    10 ISR=     1 T=0 IP=      3 IndIP=     74 IndIPD=      2 C=  1.597283D+00  0.000000D+00                             NZ=T
 IS=    29 IAt=    10 ISR=     1 T=0 IP=      4 IndIP=     75 IndIPD=      3 C=  2.079187D+00  0.000000D+00                             NZ=T
 IS=    29 IAt=    10 ISR=     1 T=0 IP=      5 IndIP=     76 IndIPD=      4 C=  1.774174D+00  0.000000D+00                             NZ=T
 IS=    29 IAt=    10 ISR=     1 T=0 IP=      6 IndIP=     77 IndIPD=      5 C=  6.125797D-01  0.000000D+00                             NZ=T
 IS=    30 IAt=    10 ISR=     2 T=1 IP=      1 IndIP=     78 IndIPD=      0 C= -3.995564D-01  1.296082D+00                             NZ=T
 IS=    30 IAt=    10 ISR=     2 T=1 IP=      2 IndIP=     79 IndIPD=      1 C= -1.841552D-01  9.937536D-01                             NZ=T
 IS=    30 IAt=    10 ISR=     2 T=1 IP=      3 IndIP=     80 IndIPD=      2 C=  5.163903D-01  4.959527D-01                             NZ=T
 IS=    31 IAt=    10 ISR=     3 T=1 IP=      1 IndIP=     81 IndIPD=      0 C=  1.876179D-01  1.541276D-01                             NZ=T
 IS=    32 IAt=    10 ISR=     4 T=2 IP=      1 IndIP=     82 IndIPD=      6 C=  0.000000D+00  0.000000D+00  1.113825D+00  0.000000D+00 NZ=T
 IS=    33 IAt=    11 ISR=     1 T=0 IP=      1 IndIP=     83 IndIPD=      0 C=  2.399732D+00  0.000000D+00                             NZ=T
 IS=    33 IAt=    11 ISR=     1 T=0 IP=      2 IndIP=     84 IndIPD=      1 C=  4.417299D+00  0.000000D+00                             NZ=T
 IS=    33 IAt=    11 ISR=     1 T=0 IP=      3 IndIP=     85 IndIPD=      2 C=  7.148435D+00  0.000000D+00                             NZ=T
 IS=    33 IAt=    11 ISR=     1 T=0 IP=      4 IndIP=     86 IndIPD=      3 C=  9.467111D+00  0.000000D+00                             NZ=T
 IS=    33 IAt=    11 ISR=     1 T=0 IP=      5 IndIP=     87 IndIPD=      4 C=  8.155775D+00  0.000000D+00                             NZ=T
 IS=    33 IAt=    11 ISR=     1 T=0 IP=      6 IndIP=     88 IndIPD=      5 C=  2.534816D+00  0.000000D+00                             NZ=T
 IS=    34 IAt=    11 ISR=     2 T=1 IP=      1 IndIP=     89 IndIPD=      0 C= -1.582042D-01  1.112864D+01                             NZ=T
 IS=    34 IAt=    11 ISR=     2 T=1 IP=      2 IndIP=     90 IndIPD=      1 C= -7.180885D-01  1.395258D+01                             NZ=T
 IS=    34 IAt=    11 ISR=     2 T=1 IP=      3 IndIP=     91 IndIPD=      2 C= -1.090665D+00  1.424079D+01                             NZ=T
 IS=    34 IAt=    11 ISR=     2 T=1 IP=      4 IndIP=     92 IndIPD=      3 C=  2.546391D-01  1.020883D+01                             NZ=T
 IS=    34 IAt=    11 ISR=     2 T=1 IP=      5 IndIP=     93 IndIPD=      4 C=  1.332545D+00  4.385313D+00                             NZ=T
 IS=    34 IAt=    11 ISR=     2 T=1 IP=      6 IndIP=     94 IndIPD=      5 C=  5.186233D-01  7.982260D-01                             NZ=T
 IS=    35 IAt=    11 ISR=     3 T=1 IP=      1 IndIP=     95 IndIPD=      0 C= -3.670339D-01 -6.880755D-02                             NZ=T
 IS=    35 IAt=    11 ISR=     3 T=1 IP=      2 IndIP=     96 IndIPD=      1 C=  4.490676D-02  3.996518D-01                             NZ=T
 IS=    35 IAt=    11 ISR=     3 T=1 IP=      3 IndIP=     97 IndIPD=      2 C=  3.355823D-01  2.805362D-01                             NZ=T
 IS=    36 IAt=    11 ISR=     4 T=1 IP=      1 IndIP=     98 IndIPD=      0 C=  1.427296D-01  9.771174D-02                             NZ=T
 IS=    37 IAt=    11 ISR=     5 T=2 IP=      1 IndIP=     99 IndIPD=      7 C=  0.000000D+00  0.000000D+00  7.744758D-01  0.000000D+00 NZ=T
 IS=    38 IAt=    12 ISR=     1 T=0 IP=      1 IndIP=    100 IndIPD=      0 C=  2.399732D+00  0.000000D+00                             NZ=T
 IS=    38 IAt=    12 ISR=     1 T=0 IP=      2 IndIP=    101 IndIPD=      1 C=  4.417299D+00  0.000000D+00                             NZ=T
 IS=    38 IAt=    12 ISR=     1 T=0 IP=      3 IndIP=    102 IndIPD=      2 C=  7.148435D+00  0.000000D+00                             NZ=T
 IS=    38 IAt=    12 ISR=     1 T=0 IP=      4 IndIP=    103 IndIPD=      3 C=  9.467111D+00  0.000000D+00                             NZ=T
 IS=    38 IAt=    12 ISR=     1 T=0 IP=      5 IndIP=    104 IndIPD=      4 C=  8.155775D+00  0.000000D+00                             NZ=T
 IS=    38 IAt=    12 ISR=     1 T=0 IP=      6 IndIP=    105 IndIPD=      5 C=  2.534816D+00  0.000000D+00                             NZ=T
 IS=    39 IAt=    12 ISR=     2 T=1 IP=      1 IndIP=    106 IndIPD=      0 C= -1.582042D-01  1.112864D+01                             NZ=T
 IS=    39 IAt=    12 ISR=     2 T=1 IP=      2 IndIP=    107 IndIPD=      1 C= -7.180885D-01  1.395258D+01                             NZ=T
 IS=    39 IAt=    12 ISR=     2 T=1 IP=      3 IndIP=    108 IndIPD=      2 C= -1.090665D+00  1.424079D+01                             NZ=T
 IS=    39 IAt=    12 ISR=     2 T=1 IP=      4 IndIP=    109 IndIPD=      3 C=  2.546391D-01  1.020883D+01                             NZ=T
 IS=    39 IAt=    12 ISR=     2 T=1 IP=      5 IndIP=    110 IndIPD=      4 C=  1.332545D+00  4.385313D+00                             NZ=T
 IS=    39 IAt=    12 ISR=     2 T=1 IP=      6 IndIP=    111 IndIPD=      5 C=  5.186233D-01  7.982260D-01                             NZ=T
 IS=    40 IAt=    12 ISR=     3 T=1 IP=      1 IndIP=    112 IndIPD=      0 C= -3.670339D-01 -6.880755D-02                             NZ=T
 IS=    40 IAt=    12 ISR=     3 T=1 IP=      2 IndIP=    113 IndIPD=      1 C=  4.490676D-02  3.996518D-01                             NZ=T
 IS=    40 IAt=    12 ISR=     3 T=1 IP=      3 IndIP=    114 IndIPD=      2 C=  3.355823D-01  2.805362D-01                             NZ=T
 IS=    41 IAt=    12 ISR=     4 T=1 IP=      1 IndIP=    115 IndIPD=      0 C=  1.427296D-01  9.771174D-02                             NZ=T
 IS=    42 IAt=    12 ISR=     5 T=2 IP=      1 IndIP=    116 IndIPD=      8 C=  0.000000D+00  0.000000D+00  7.744758D-01  0.000000D+00 NZ=T
 IS=    43 IAt=    13 ISR=     1 T=0 IP=      1 IndIP=    117 IndIPD=      0 C=  2.149354D-01  0.000000D+00                             NZ=T
 IS=    43 IAt=    13 ISR=     1 T=0 IP=      2 IndIP=    118 IndIPD=      1 C=  3.645712D-01  0.000000D+00                             NZ=T
 IS=    43 IAt=    13 ISR=     1 T=0 IP=      3 IndIP=    119 IndIPD=      2 C=  4.150514D-01  0.000000D+00                             NZ=T
 IS=    44 IAt=    13 ISR=     2 T=0 IP=      1 IndIP=    120 IndIPD=      0 C=  1.813806D-01  0.000000D+00                             NZ=T
 IS=    45 IAt=    14 ISR=     1 T=0 IP=      1 IndIP=    121 IndIPD=      0 C=  2.149354D-01  0.000000D+00                             NZ=T
 IS=    45 IAt=    14 ISR=     1 T=0 IP=      2 IndIP=    122 IndIPD=      1 C=  3.645712D-01  0.000000D+00                             NZ=T
 IS=    45 IAt=    14 ISR=     1 T=0 IP=      3 IndIP=    123 IndIPD=      2 C=  4.150514D-01  0.000000D+00                             NZ=T
 IS=    46 IAt=    14 ISR=     2 T=0 IP=      1 IndIP=    124 IndIPD=      0 C=  1.813806D-01  0.000000D+00                             NZ=T
 IExCor=  402 DFT=T Ex+Corr=B3LYP ExCW=0 ScaHFX=  0.200000
 ScaDFX=  0.800000  0.720000  1.000000  0.810000 ScalE2=  1.000000  1.000000
 IRadAn=      5 IRanWt=     -1 IRanGd=            0 ICorTp=0 IEmpDi=  4
 NAtoms=   14 NActive=   14 NUniq=   14 SFac= 1.00D+00 NAtFMM=   60 NAOKFM=F Big=F
 Integral buffers will be    131072 words long.
 Raffenetti 2 integral format.
 Two-electron integral symmetry is turned on.
 NPDir=0 NMtPBC=     1 NCelOv=     1 NCel=       1 NClECP=     1 NCelD=      1
         NCelK=      1 NCelE2=     1 NClLst=     1 CellRange=     0.0.
 One-electron integrals computed using PRISM.
 Entering OneElI...
 Calculate overlap and kinetic energy integrals
    NBasis = 140  MinDer = 0  MaxDer = 0
 Requested accuracy = 0.1000D-12
 PrmmSu-InSpLW:  IPartL=    0 NPrtUS=   28 NPrtUL=    1 DoSpLW=F IThBeg=    0 IThEnd=   27 NThAct=   28.
 PrsmSu:  NPrtUS=  28 ThrOK=T IAlg=1 NPAlg=2 LenDen=           0 ISkipM=0 DoSpLW=F IThBeg=    0 IThEnd=   27.
 Prism:   IPart=     0 DynPar=F LinDyn=F Incr=           1.
 PRISM was handed    43071030 working-precision words and  1052 shell-pairs
 PRISM was handed    43071030 working-precision words and  1052 shell-pairs
 PRISM was handed    43071030 working-precision words and  1052 shell-pairs
 PRISM was handed    43071030 working-precision words and  1052 shell-pairs
 PRISM was handed    43071030 working-precision words and  1052 shell-pairs
 PRISM was handed    43071030 working-precision words and  1052 shell-pairs
 PRISM was handed    43071030 working-precision words and  1052 shell-pairs
 PRISM was handed    43071030 working-precision words and  1052 shell-pairs
 PRISM was handed    43071030 working-precision words and  1052 shell-pairs
 PRISM was handed    43071030 working-precision words and  1052 shell-pairs
 PRISM was handed    43071030 working-precision words and  1052 shell-pairs
 IPart= 11 NShTot=          38 NBatch=          22 AvBLen=         1.7
 IPart=  8 NShTot=          40 NBatch=          23 AvBLen=         1.7
 IPart=  4 NShTot=          51 NBatch=          30 AvBLen=         1.7
 PRISM was handed    43071030 working-precision words and  1052 shell-pairs
 IPart=  1 NShTot=          68 NBatch=          46 AvBLen=         1.5
 IPart= 26 NShTot=          22 NBatch=          13 AvBLen=         1.7
 IPart=  6 NShTot=          46 NBatch=          26 AvBLen=         1.8
 PRISM was handed    43071030 working-precision words and  1052 shell-pairs
 PRISM was handed    43071030 working-precision words and  1052 shell-pairs
 IPart= 18 NShTot=          28 NBatch=          16 AvBLen=         1.8
 PRISM was handed    43071030 working-precision words and  1052 shell-pairs
 IPart=  9 NShTot=          40 NBatch=          23 AvBLen=         1.7
 IPart= 23 NShTot=          25 NBatch=          15 AvBLen=         1.7
 PRISM was handed    43071030 working-precision words and  1052 shell-pairs
 IPart= 14 NShTot=          33 NBatch=          20 AvBLen=         1.6
 IPart=  5 NShTot=          51 NBatch=          30 AvBLen=         1.7
 PRISM was handed    43071030 working-precision words and  1052 shell-pairs
 IPart= 12 NShTot=          36 NBatch=          22 AvBLen=         1.6
 IPart= 10 NShTot=          39 NBatch=          23 AvBLen=         1.7
 IPart= 16 NShTot=          29 NBatch=          17 AvBLen=         1.7
 PRISM was handed    43071030 working-precision words and  1052 shell-pairs
 PRISM was handed    43071030 working-precision words and  1052 shell-pairs
 IPart=  7 NShTot=          46 NBatch=          26 AvBLen=         1.8
 IPart= 21 NShTot=          27 NBatch=          16 AvBLen=         1.7
 PRISM was handed    43071030 working-precision words and  1052 shell-pairs
 PRISM was handed    43071030 working-precision words and  1052 shell-pairs
 PRISM was handed    43071030 working-precision words and  1052 shell-pairs
 PRISM was handed    43071030 working-precision words and  1052 shell-pairs
 PRISM was handed    43071030 working-precision words and  1052 shell-pairs
 PRISM was handed    43071030 working-precision words and  1052 shell-pairs
 PRISM was handed    43071030 working-precision words and  1052 shell-pairs
 PRISM was handed    43071030 working-precision words and  1052 shell-pairs
 PRISM was handed    43071030 working-precision words and  1052 shell-pairs
 IPart= 13 NShTot=          36 NBatch=          22 AvBLen=         1.6
 IPart= 27 NShTot=          22 NBatch=          13 AvBLen=         1.7
 IPart=  0 NShTot=          69 NBatch=          47 AvBLen=         1.5
 IPart= 22 NShTot=          25 NBatch=          15 AvBLen=         1.7
 IPart= 24 NShTot=          24 NBatch=          15 AvBLen=         1.6
 IPart= 19 NShTot=          28 NBatch=          16 AvBLen=         1.8
 IPart= 17 NShTot=          29 NBatch=          17 AvBLen=         1.7
 IPart=  3 NShTot=          58 NBatch=          36 AvBLen=         1.6
 IPart= 20 NShTot=          27 NBatch=          16 AvBLen=         1.7
 IPart= 15 NShTot=          33 NBatch=          20 AvBLen=         1.6
 IPart=  2 NShTot=          58 NBatch=          36 AvBLen=         1.6
 IPart= 25 NShTot=          24 NBatch=          15 AvBLen=         1.6
 PrSmSu:  NxtVal=             29.
 *** Overlap *** 
                1             2             3             4             5 
      1  0.100000D+01
      2  0.219059D+00  0.100000D+01
      3  0.000000D+00  0.000000D+00  0.100000D+01
      4  0.000000D+00  0.000000D+00  0.000000D+00  0.100000D+01
      5  0.000000D+00  0.000000D+00  0.000000D+00  0.000000D+00  0.100000D+01
      6  0.184261D+00  0.812273D+00  0.000000D+00  0.000000D+00  0.000000D+00
      7  0.000000D+00  0.000000D+00  0.569754D+00  0.000000D+00  0.000000D+00
      8  0.000000D+00  0.000000D+00  0.000000D+00  0.569754D+00  0.000000D+00
      9  0.000000D+00  0.000000D+00  0.000000D+00  0.000000D+00  0.569754D+00
     10  0.791027D-01  0.710235D+00  0.000000D+00  0.000000D+00  0.000000D+00
     11  0.791027D-01  0.710235D+00  0.000000D+00  0.000000D+00  0.000000D+00
     12  0.791027D-01  0.710235D+00  0.000000D+00  0.000000D+00  0.000000D+00
     13  0.000000D+00  0.000000D+00  0.000000D+00  0.000000D+00  0.000000D+00
     14  0.000000D+00  0.000000D+00  0.000000D+00  0.000000D+00  0.000000D+00
     15  0.000000D+00  0.000000D+00  0.000000D+00  0.000000D+00  0.000000D+00
     16  0.206269D-05  0.150667D-01 -0.173622D-01  0.294764D-01  0.000000D+00
     17  0.150667D-01  0.177479D+00 -0.128750D+00  0.218582D+00 -0.688644D-05
     18  0.173622D-01  0.128750D+00 -0.732611D-02  0.180103D+00 -0.567414D-05
     19 -0.294764D-01 -0.218582D+00  0.180103D+00 -0.207008D+00  0.963317D-05
     20  0.000000D+00  0.688644D-05 -0.567414D-05  0.963317D-05  0.987583D-01
     21  0.590206D-01  0.335944D+00 -0.124787D+00  0.211856D+00 -0.667451D-05
     22  0.627585D-01  0.277690D+00  0.118850D+00  0.182400D+00 -0.574653D-05
     23 -0.106547D+00 -0.471443D+00  0.182400D+00 -0.833792D-01  0.975606D-05
     24  0.335677D-05  0.148528D-04 -0.574653D-05  0.975606D-05  0.226288D+00
     25  0.108141D-01  0.135755D+00 -0.286507D-01  0.206052D+00 -0.649167D-05
     26  0.296627D-01  0.243996D+00 -0.231453D+00  0.235535D+00 -0.123798D-04
     27  0.800411D-03  0.782502D-01 -0.628847D-01  0.106761D+00  0.159571D-05
     28 -0.294458D-01 -0.169096D+00  0.356546D-01 -0.211673D+00  0.919851D-05
     29  0.000000D+00  0.532737D-05 -0.112330D-05  0.919851D-05  0.802964D-01
     30 -0.157497D-05 -0.904445D-05  0.919851D-05 -0.113218D-04 -0.136322D+00
     31  0.205331D-05  0.150458D-01 -0.174241D-01 -0.293923D-01  0.000000D+00
     32  0.150458D-01  0.177348D+00 -0.129288D+00 -0.218093D+00  0.144864D-05
     33  0.174241D-01  0.129288D+00 -0.837297D-02 -0.180574D+00  0.119943D-05
     34  0.293923D-01  0.218093D+00 -0.180574D+00 -0.205932D+00  0.202328D-05
     35  0.000000D+00 -0.144864D-05  0.119943D-05  0.202328D-05  0.986739D-01
     36  0.589930D-01  0.335822D+00 -0.125361D+00 -0.211467D+00  0.140463D-05
     37  0.630413D-01  0.278970D+00  0.117734D+00 -0.182972D+00  0.121535D-05
     38  0.106342D+00  0.470587D+00 -0.182972D+00 -0.824471D-01  0.205014D-05
     39  0.000000D+00 -0.312578D-05  0.121535D-05  0.205014D-05  0.226202D+00
     40  0.108928D-01  0.136207D+00 -0.293504D-01 -0.206534D+00  0.137186D-05
     41  0.295215D-01  0.243300D+00 -0.231875D+00 -0.234119D+00  0.259809D-05
     42  0.798916D-03  0.781782D-01 -0.631374D-01 -0.106505D+00  0.000000D+00
     43  0.294918D-01  0.169544D+00 -0.372698D-01 -0.211647D+00  0.194129D-05
     44  0.000000D+00 -0.112616D-05  0.000000D+00  0.194129D-05  0.806148D-01
     45  0.000000D+00 -0.189969D-05  0.194129D-05  0.237144D-05  0.135987D+00
     46  0.329304D-04  0.683291D-02 -0.125188D-02  0.148315D-01  0.000000D+00
     47  0.132299D-01  0.103462D+00 -0.911528D-02  0.107993D+00 -0.375741D-05
     48  0.336423D-04  0.691220D-02 -0.127860D-02 -0.149876D-01  0.000000D+00
     49  0.133107D-01  0.103960D+00 -0.924703D-02 -0.108393D+00  0.181250D-05
     50  0.000000D+00  0.183063D-04 -0.610769D-04  0.350477D-04  0.000000D+00
     51  0.183063D-04  0.427188D-02 -0.826680D-02  0.474373D-02  0.000000D+00
     52  0.610769D-04  0.826680D-02 -0.144143D-01  0.934466D-02  0.000000D+00
     53 -0.350477D-04 -0.474373D-02  0.934466D-02 -0.349176D-02  0.000000D+00
     54  0.000000D+00  0.000000D+00  0.000000D+00  0.000000D+00  0.187049D-02
     55  0.605844D-02  0.568551D-01 -0.588014D-01  0.337420D-01  0.000000D+00
     56  0.190567D-01  0.140024D+00 -0.112905D+00  0.854567D-01 -0.134535D-05
     57 -0.109353D-01 -0.803500D-01  0.854567D-01 -0.130186D-01  0.000000D+00
     58  0.000000D+00  0.126495D-05 -0.134535D-05  0.000000D+00  0.360189D-01
     59  0.836028D-05  0.675350D-02 -0.128404D-01  0.888270D-02  0.000000D+00
     60  0.281634D-05  0.279384D-02 -0.639430D-02  0.215473D-02  0.000000D+00
     61  0.000000D+00  0.849909D-03 -0.193395D-02  0.110976D-02  0.000000D+00
     62 -0.821524D-05 -0.586759D-02  0.121515D-01 -0.543984D-02  0.000000D+00
     63  0.000000D+00  0.000000D+00  0.000000D+00  0.000000D+00  0.228570D-02
     64  0.000000D+00  0.000000D+00  0.000000D+00  0.000000D+00 -0.131160D-02
     65  0.000000D+00  0.180929D-04 -0.604630D-04 -0.345465D-04  0.000000D+00
     66  0.180929D-04  0.424348D-02 -0.822497D-02 -0.469946D-02  0.000000D+00
     67  0.604630D-04  0.822497D-02 -0.143694D-01 -0.927165D-02  0.000000D+00
     68  0.345465D-04  0.469946D-02 -0.927165D-02 -0.343967D-02  0.000000D+00
     69  0.000000D+00  0.000000D+00  0.000000D+00  0.000000D+00  0.185782D-02
     70  0.603421D-02  0.566770D-01 -0.587088D-01 -0.335441D-01  0.000000D+00
     71  0.190119D-01  0.139817D+00 -0.113030D+00 -0.850950D-01  0.000000D+00
     72  0.108627D-01  0.798867D-01 -0.850950D-01 -0.127174D-01  0.000000D+00
     73  0.000000D+00  0.000000D+00  0.000000D+00  0.000000D+00  0.359029D-01
     74  0.825413D-05  0.671924D-02 -0.128033D-01 -0.881378D-02  0.000000D+00
     75  0.275736D-05  0.276145D-02 -0.633024D-02 -0.211843D-02  0.000000D+00
     76  0.000000D+00  0.843152D-03 -0.192173D-02 -0.109801D-02  0.000000D+00
     77  0.807638D-05  0.581517D-02 -0.120664D-01 -0.536457D-02  0.000000D+00
     78  0.000000D+00  0.000000D+00  0.000000D+00  0.000000D+00  0.227121D-02
     79  0.000000D+00  0.000000D+00  0.000000D+00  0.000000D+00  0.129769D-02
     80  0.000000D+00  0.482433D-05 -0.124665D-04  0.102036D-04  0.000000D+00
     81  0.286040D-03  0.496610D-02 -0.590194D-02  0.483065D-02  0.000000D+00
     82  0.000000D+00  0.482750D-05 -0.124832D-04 -0.101992D-04  0.000000D+00
     83  0.286140D-03  0.496747D-02 -0.590764D-02 -0.482673D-02  0.000000D+00
     84  0.000000D+00  0.000000D+00 -0.250056D-05  0.000000D+00  0.000000D+00
     85  0.000000D+00  0.582934D-03 -0.149708D-02  0.134700D-05  0.000000D+00
     86  0.250056D-05  0.149708D-02 -0.361808D-02  0.348004D-05  0.000000D+00
     87  0.000000D+00 -0.134700D-05  0.348004D-05  0.249687D-03  0.000000D+00
     88  0.000000D+00  0.000000D+00  0.000000D+00  0.000000D+00  0.249690D-03
     89  0.183695D-02  0.223053D-01 -0.301654D-01  0.271414D-04  0.000000D+00
     90  0.773651D-02  0.737556D-01 -0.882690D-01  0.918324D-04  0.000000D+00
     91 -0.696095D-05 -0.663618D-04  0.918324D-04  0.137949D-01  0.000000D+00
     92  0.000000D+00  0.000000D+00  0.000000D+00  0.000000D+00  0.137950D-01
     93  0.000000D+00  0.106271D-02 -0.291244D-02  0.291428D-05  0.000000D+00
     94  0.000000D+00  0.788056D-04 -0.239864D-03  0.000000D+00  0.000000D+00
     95  0.000000D+00  0.788048D-04 -0.239862D-03  0.000000D+00  0.000000D+00
     96  0.000000D+00 -0.153334D-05  0.441943D-05  0.282782D-03  0.000000D+00
     97  0.000000D+00  0.000000D+00  0.000000D+00  0.000000D+00  0.282786D-03
     98  0.000000D+00  0.000000D+00  0.000000D+00  0.000000D+00  0.000000D+00
     99  0.000000D+00  0.000000D+00  0.000000D+00  0.000000D+00  0.000000D+00
    100  0.000000D+00  0.000000D+00  0.000000D+00  0.000000D+00  0.000000D+00
    101  0.000000D+00  0.000000D+00  0.000000D+00  0.000000D+00  0.000000D+00
    102  0.000000D+00  0.000000D+00  0.000000D+00  0.000000D+00  0.000000D+00
    103  0.000000D+00  0.000000D+00  0.000000D+00  0.000000D+00  0.000000D+00
    104  0.000000D+00  0.000000D+00  0.000000D+00  0.000000D+00  0.000000D+00
    105  0.000000D+00  0.000000D+00 -0.205245D-05  0.000000D+00  0.000000D+00
    106  0.000000D+00  0.000000D+00  0.000000D+00  0.000000D+00  0.000000D+00
    107  0.000000D+00  0.000000D+00  0.000000D+00  0.000000D+00  0.000000D+00
    108  0.251847D-04  0.501742D-03 -0.798711D-03  0.147156D-04  0.000000D+00
    109  0.146015D-03  0.244791D-02 -0.367047D-02  0.725675D-04  0.000000D+00
    110 -0.269021D-05 -0.451008D-04  0.725675D-04  0.266896D-03  0.000000D+00
    111  0.000000D+00  0.000000D+00  0.000000D+00  0.000000D+00  0.268233D-03
    112  0.000000D+00  0.000000D+00  0.000000D+00  0.000000D+00  0.000000D+00
    113  0.000000D+00  0.000000D+00  0.000000D+00  0.000000D+00  0.000000D+00
    114  0.000000D+00  0.000000D+00  0.000000D+00  0.000000D+00  0.000000D+00
    115  0.000000D+00  0.000000D+00  0.000000D+00  0.000000D+00  0.000000D+00
    116  0.000000D+00  0.000000D+00  0.000000D+00  0.000000D+00  0.000000D+00
    117  0.000000D+00  0.000000D+00  0.000000D+00  0.000000D+00  0.000000D+00
    118  0.000000D+00  0.253634D-03  0.808877D-03 -0.373352D-04  0.000000D+00
    119  0.000000D+00  0.448036D-02  0.117557D-01 -0.542608D-03  0.000000D+00
    120  0.000000D+00 -0.553077D-02 -0.132352D-01  0.677762D-03  0.101114D-05
    121  0.000000D+00  0.255283D-03  0.677762D-03  0.141742D-02  0.000000D+00
    122  0.000000D+00  0.000000D+00  0.101114D-05  0.000000D+00  0.144871D-02
    123  0.834569D-02  0.101340D+00  0.143072D+00 -0.660377D-02 -0.985209D-05
    124 -0.219868D-01 -0.187873D+00 -0.233048D+00  0.133498D-01  0.199164D-04
    125  0.101484D-02  0.867163D-02  0.133498D-01  0.555619D-01  0.000000D+00
    126  0.151403D-05  0.129371D-04  0.199164D-04  0.000000D+00  0.561781D-01
    127  0.386770D-01  0.235292D+00  0.162038D+00 -0.747919D-02 -0.111581D-04
    128 -0.871125D-01 -0.441956D+00 -0.172393D+00  0.144304D-01  0.215285D-04
    129  0.402084D-02  0.203993D-01  0.144304D-01  0.139578D+00  0.000000D+00
    130  0.599865D-05  0.304335D-04  0.215285D-04  0.000000D+00  0.140244D+00
    131  0.883691D-02  0.155575D+00  0.233490D+00 -0.142870D-01 -0.213146D-04
    132  0.129736D-03  0.243887D-01  0.441258D-01  0.147308D-02 -0.303854D-05
    133  0.111146D-03  0.241086D-01  0.435591D-01 -0.201055D-02  0.223669D-05
    134 -0.697591D-03 -0.105102D-01 -0.182238D-01 -0.648714D-01  0.146422D-05
    135 -0.104073D-05 -0.156801D-04 -0.271879D-04  0.146422D-05 -0.658529D-01
    136  0.000000D+00  0.000000D+00  0.146422D-05  0.446711D-05  0.303957D-02
    137  0.557818D-05  0.261744D-02  0.523339D-02  0.325089D-02  0.177441D-05
    138  0.797286D-02  0.693769D-01  0.666729D-01  0.414161D-01  0.226059D-04
    139  0.000000D+00  0.000000D+00  0.000000D+00  0.000000D+00  0.000000D+00
    140  0.000000D+00  0.140680D-04 -0.289139D-04 -0.746182D-05  0.000000D+00
                6             7             8             9            10 
      6  0.100000D+01
      7  0.000000D+00  0.100000D+01
      8  0.000000D+00  0.000000D+00  0.100000D+01
      9  0.000000D+00  0.000000D+00  0.000000D+00  0.100000D+01
     10  0.629936D+00  0.000000D+00  0.000000D+00  0.000000D+00  0.100000D+01
     11  0.629936D+00  0.000000D+00  0.000000D+00  0.000000D+00  0.333333D+00
     12  0.629936D+00  0.000000D+00  0.000000D+00  0.000000D+00  0.333333D+00
     13  0.000000D+00  0.000000D+00  0.000000D+00  0.000000D+00  0.000000D+00
     14  0.000000D+00  0.000000D+00  0.000000D+00  0.000000D+00  0.000000D+00
     15  0.000000D+00  0.000000D+00  0.000000D+00  0.000000D+00  0.000000D+00
     16  0.590206D-01 -0.627585D-01  0.106547D+00 -0.335677D-05  0.108141D-01
     17  0.335944D+00 -0.277690D+00  0.471443D+00 -0.148528D-04  0.135755D+00
     18  0.124787D+00  0.118850D+00  0.182400D+00 -0.574653D-05  0.286507D-01
     19 -0.211856D+00  0.182400D+00 -0.833792D-01  0.975606D-05 -0.206052D+00
     20  0.667451D-05 -0.574653D-05  0.975606D-05  0.226288D+00  0.649167D-05
     21  0.554157D+00 -0.305593D+00  0.518814D+00 -0.163452D-04  0.262778D+00
     22  0.305593D+00  0.385637D+00  0.286102D+00 -0.901367D-05  0.148061D+00
     23 -0.518814D+00  0.286102D+00  0.684319D-01  0.153028D-04 -0.406342D+00
     24  0.163452D-04 -0.901367D-05  0.153028D-04  0.554157D+00  0.128018D-04
     25  0.262778D+00 -0.148061D+00  0.406342D+00 -0.128018D-04  0.445405D-01
     26  0.310153D+00 -0.282495D+00  0.324627D+00 -0.151098D-04  0.255460D+00
     27  0.237608D+00 -0.216419D+00  0.367422D+00 -0.669319D-05  0.495443D-01
     28 -0.740113D-01 -0.667998D-01 -0.353930D-01  0.360563D-05 -0.380221D-01
     29  0.233173D-05  0.210453D-05  0.360563D-05  0.790531D-01  0.119789D-05
     30 -0.395865D-05  0.360563D-05 -0.189307D-05 -0.134211D+00 -0.112365D-04
     31  0.589930D-01 -0.630413D-01 -0.106342D+00  0.000000D+00  0.108928D-01
     32  0.335822D+00 -0.278970D+00 -0.470587D+00  0.312578D-05  0.136207D+00
     33  0.125361D+00  0.117734D+00 -0.182972D+00  0.121535D-05  0.293504D-01
     34  0.211467D+00 -0.182972D+00 -0.824471D-01  0.205014D-05  0.206534D+00
     35 -0.140463D-05  0.121535D-05  0.205014D-05  0.226202D+00 -0.137186D-05
     36  0.554023D+00 -0.307038D+00 -0.517934D+00  0.344027D-05  0.262923D+00
     37  0.307038D+00  0.383863D+00 -0.287038D+00  0.190659D-05  0.148968D+00
     38  0.517934D+00 -0.287038D+00  0.698274D-01  0.321617D-05  0.405976D+00
     39 -0.344027D-05  0.190659D-05  0.321617D-05  0.554023D+00 -0.269661D-05
     40  0.262923D+00 -0.148968D+00 -0.405976D+00  0.269661D-05  0.447512D-01
     41  0.309818D+00 -0.283593D+00 -0.323699D+00  0.317758D-05  0.256068D+00
     42  0.237514D+00 -0.217409D+00 -0.366741D+00  0.140853D-05  0.497789D-01
     43  0.742415D-01  0.660049D-01 -0.352205D-01  0.000000D+00  0.393519D-01
     44  0.000000D+00  0.000000D+00  0.000000D+00  0.794146D-01  0.000000D+00
     45  0.000000D+00  0.000000D+00  0.000000D+00  0.133962D+00 -0.237332D-05
     46  0.693161D-01 -0.157252D-01  0.186302D+00 -0.648206D-05  0.145119D-02
     47  0.251996D+00 -0.347866D-01  0.412131D+00 -0.143394D-04  0.663173D-01
     48  0.696843D-01 -0.159582D-01 -0.187061D+00  0.312796D-05  0.147330D-02
     49  0.252810D+00 -0.352286D-01 -0.412947D+00  0.690513D-05  0.666743D-01
     50  0.605844D-02 -0.190567D-01  0.109353D-01  0.000000D+00  0.836028D-05
     51  0.568551D-01 -0.140024D+00  0.803500D-01 -0.126495D-05  0.675350D-02
     52  0.588014D-01 -0.112905D+00  0.854567D-01 -0.134535D-05  0.128404D-01
     53 -0.337420D-01  0.854567D-01 -0.130186D-01  0.000000D+00 -0.888270D-02
     54  0.000000D+00 -0.134535D-05  0.000000D+00  0.360189D-01  0.000000D+00
     55  0.170106D+00 -0.277700D+00  0.159352D+00 -0.250869D-05  0.651443D-01
     56  0.277700D+00 -0.283244D+00  0.260145D+00 -0.409548D-05  0.137233D+00
     57 -0.159352D+00  0.260145D+00  0.208268D-01  0.235011D-05 -0.100795D+00
     58  0.250869D-05 -0.409548D-05  0.235011D-05  0.170106D+00  0.158683D-05
     59  0.651443D-01 -0.137233D+00  0.100795D+00 -0.158683D-05  0.103090D-01
     60  0.441095D-01 -0.118936D+00  0.462019D-01 -0.107445D-05  0.527989D-02
     61  0.337828D-01 -0.910913D-01  0.522709D-01  0.000000D+00  0.102300D-02
     62 -0.311702D-01  0.649534D-01 -0.149549D-01  0.000000D+00 -0.109646D-01
     63  0.000000D+00 -0.102256D-05  0.000000D+00  0.332736D-01  0.000000D+00
     64  0.000000D+00  0.000000D+00  0.000000D+00 -0.190934D-01  0.000000D+00
     65  0.603421D-02 -0.190119D-01 -0.108627D-01  0.000000D+00  0.825413D-05
     66  0.566770D-01 -0.139817D+00 -0.798867D-01  0.000000D+00  0.671924D-02
     67  0.587088D-01 -0.113030D+00 -0.850950D-01  0.000000D+00  0.128033D-01
     68  0.335441D-01 -0.850950D-01 -0.127174D-01  0.000000D+00  0.881378D-02
     69  0.000000D+00  0.000000D+00  0.000000D+00  0.359029D-01  0.000000D+00
     70  0.169752D+00 -0.277581D+00 -0.158600D+00 -0.118586D-05  0.650242D-01
     71  0.277581D+00 -0.284150D+00 -0.259344D+00 -0.193913D-05  0.137267D+00
     72  0.158600D+00 -0.259344D+00  0.215724D-01 -0.110795D-05  0.100343D+00
     73  0.118586D-05 -0.193913D-05 -0.110795D-05  0.169752D+00  0.000000D+00
     74  0.650242D-01 -0.137267D+00 -0.100343D+00  0.000000D+00  0.102801D-01
     75  0.439038D-01 -0.118577D+00 -0.458373D-01  0.000000D+00  0.522171D-02
     76  0.336670D-01 -0.909288D-01 -0.519535D-01  0.000000D+00  0.101606D-02
     77  0.310321D-01 -0.648351D-01 -0.146733D-01  0.000000D+00  0.108851D-01
     78  0.000000D+00  0.000000D+00  0.000000D+00  0.332143D-01  0.000000D+00
     79  0.000000D+00  0.000000D+00  0.000000D+00  0.189775D-01  0.000000D+00
     80  0.248742D-02 -0.811330D-02  0.664061D-02  0.000000D+00  0.320381D-05
     81  0.330262D-01 -0.659869D-01  0.540093D-01 -0.112758D-05  0.564353D-02
     82  0.248816D-02 -0.812130D-02 -0.663536D-02  0.000000D+00  0.321045D-05
     83  0.330322D-01 -0.660443D-01 -0.539603D-01  0.000000D+00  0.564965D-02
     84  0.183695D-02 -0.773651D-02  0.696095D-05  0.000000D+00  0.000000D+00
     85  0.223053D-01 -0.737556D-01  0.663618D-04  0.000000D+00  0.106271D-02
     86  0.301654D-01 -0.882690D-01  0.918324D-04  0.000000D+00  0.291244D-02
     87 -0.271414D-04  0.918324D-04  0.137949D-01  0.000000D+00 -0.291428D-05
     88  0.000000D+00  0.000000D+00  0.000000D+00  0.137950D-01  0.000000D+00
     89  0.915560D-01 -0.200204D+00  0.180134D-03 -0.142132D-05  0.323691D-01
     90  0.200204D+00 -0.346229D+00  0.393898D-03 -0.310798D-05  0.984084D-01
     91 -0.180134D-03  0.393898D-03  0.915556D-01  0.000000D+00 -0.105188D-03
     92  0.142132D-05 -0.310798D-05  0.000000D+00  0.915560D-01  0.000000D+00
     93  0.323691D-01 -0.984084D-01  0.105188D-03  0.000000D+00  0.187567D-02
     94  0.121435D-01 -0.438585D-01  0.228174D-04  0.000000D+00  0.941308D-04
     95  0.121435D-01 -0.438584D-01  0.394618D-04  0.000000D+00  0.941291D-04
     96 -0.315200D-04  0.994262D-04  0.160204D-01  0.000000D+00 -0.304499D-05
     97  0.000000D+00  0.000000D+00  0.000000D+00  0.160205D-01  0.000000D+00
     98  0.000000D+00  0.000000D+00  0.000000D+00 -0.144145D-04  0.000000D+00
     99  0.000000D+00  0.000000D+00  0.000000D+00  0.000000D+00  0.000000D+00
    100  0.211033D-05 -0.140325D-04  0.000000D+00  0.000000D+00  0.000000D+00
    101  0.239624D-05 -0.152974D-04  0.000000D+00  0.000000D+00  0.000000D+00
    102  0.000000D+00  0.000000D+00  0.000000D+00  0.000000D+00  0.000000D+00
    103  0.000000D+00  0.000000D+00  0.000000D+00  0.000000D+00  0.000000D+00
    104  0.187254D-03 -0.895568D-03  0.165001D-04  0.000000D+00  0.000000D+00
    105  0.459718D-03 -0.208242D-02  0.407374D-04  0.000000D+00  0.000000D+00
    106 -0.846994D-05  0.407374D-04  0.127908D-03  0.000000D+00  0.000000D+00
    107  0.000000D+00  0.000000D+00  0.000000D+00  0.128659D-03  0.000000D+00
    108  0.519933D-02 -0.152282D-01  0.280568D-03  0.000000D+00  0.783279D-03
    109  0.182735D-01 -0.484067D-01  0.986079D-03  0.000000D+00  0.370381D-02
    110 -0.336675D-03  0.986079D-03  0.509595D-02  0.000000D+00 -0.749643D-04
    111  0.000000D+00  0.000000D+00  0.000000D+00  0.511412D-02  0.000000D+00
    112  0.164885D-03 -0.857946D-03  0.172358D-04  0.000000D+00  0.000000D+00
    113  0.263779D-04 -0.149659D-03  0.132850D-05  0.000000D+00  0.000000D+00
    114  0.263309D-04 -0.149392D-03  0.275243D-05  0.000000D+00  0.000000D+00
    115 -0.442149D-05  0.238485D-04  0.667004D-04  0.000000D+00  0.000000D+00
    116  0.000000D+00  0.000000D+00  0.000000D+00  0.671626D-04  0.000000D+00
    117  0.000000D+00  0.000000D+00  0.000000D+00 -0.123742D-05  0.000000D+00
    118  0.623353D-02  0.171984D-01 -0.793824D-03 -0.118430D-05  0.356029D-03
    119  0.523689D-01  0.135884D+00 -0.627201D-02 -0.935713D-05  0.936796D-02
    120 -0.237791D-01 -0.447905D-01  0.285903D-02  0.426535D-05 -0.131708D-01
    121  0.109757D-02  0.285903D-02  0.170190D-01  0.000000D+00  0.710379D-03
    122  0.163745D-05  0.426535D-05  0.000000D+00  0.171510D-01  0.105981D-05
    123  0.259782D+00  0.475876D+00 -0.219649D-01 -0.327693D-04  0.163002D+00
    124 -0.284590D+00 -0.340771D+00  0.252033D-01  0.376005D-04 -0.275190D+00
    125  0.131358D-01  0.252033D-01  0.204101D+00 -0.173552D-05  0.168926D-01
    126  0.195971D-04  0.376005D-04 -0.173552D-05  0.205264D+00  0.252019D-04
    127  0.442950D+00  0.503397D+00 -0.232353D-01 -0.346644D-04  0.229394D+00
    128 -0.604066D+00 -0.250811D+00  0.316867D-01  0.472731D-04 -0.361377D+00
    129  0.278818D-01  0.316867D-01  0.434227D+00 -0.218198D-05  0.213414D-01
    130  0.415965D-04  0.472731D-04 -0.218198D-05  0.435690D+00  0.318390D-04
    131  0.259023D+00  0.405070D+00 -0.263204D-01 -0.392671D-04  0.293162D+00
    132  0.144767D+00  0.318705D+00 -0.708680D-02 -0.219463D-04  0.425289D-01
    133  0.144524D+00  0.318168D+00 -0.146857D-01 -0.105357D-04  0.416368D-01
    134 -0.915377D-02 -0.135497D-01 -0.142109D+00  0.138769D-05 -0.263582D-01
    135 -0.136564D-04 -0.202147D-04  0.138769D-05 -0.143040D+00 -0.393235D-04
    136  0.000000D+00  0.138769D-05  0.978579D-05  0.660226D-02  0.230543D-05
    137  0.446131D-01  0.111603D+00  0.693260D-01  0.378397D-04  0.393842D-02
    138  0.192699D+00  0.293651D+00  0.182411D+00  0.995640D-04  0.757749D-01
    139  0.434283D-05 -0.258101D-04 -0.666082D-05  0.000000D+00  0.000000D+00
    140  0.666413D-03 -0.243984D-02 -0.629652D-03  0.000000D+00  0.230890D-04
               11            12            13            14            15 
     11  0.100000D+01
     12  0.333333D+00  0.100000D+01
     13  0.000000D+00  0.000000D+00  0.100000D+01
     14  0.000000D+00  0.000000D+00  0.000000D+00  0.100000D+01
     15  0.000000D+00  0.000000D+00  0.000000D+00  0.000000D+00  0.100000D+01
     16  0.296627D-01  0.800411D-03 -0.294458D-01  0.000000D+00 -0.157497D-05
     17  0.243996D+00  0.782502D-01 -0.169096D+00  0.532737D-05 -0.904445D-05
     18  0.231453D+00  0.628847D-01 -0.356546D-01  0.112330D-05 -0.919851D-05
     19 -0.235535D+00 -0.106761D+00  0.211673D+00 -0.919851D-05  0.113218D-04
     20  0.123798D-04 -0.159571D-05 -0.919851D-05 -0.802964D-01  0.136322D+00
     21  0.310153D+00  0.237608D+00 -0.740113D-01  0.233173D-05 -0.395865D-05
     22  0.282495D+00  0.216419D+00  0.667998D-01 -0.210453D-05 -0.360563D-05
     23 -0.324627D+00 -0.367422D+00  0.353930D-01 -0.360563D-05  0.189307D-05
     24  0.151098D-04  0.669319D-05 -0.360563D-05 -0.790531D-01  0.134211D+00
     25  0.255460D+00  0.495443D-01 -0.380221D-01  0.119789D-05 -0.112365D-04
     26  0.242683D+00  0.104612D+00 -0.271521D+00  0.139749D-04 -0.145229D-04
     27  0.104612D+00  0.608659D-01 -0.860280D-01 -0.271031D-05  0.460139D-05
     28 -0.271521D+00 -0.860280D-01  0.849051D-01 -0.352246D-05  0.148164D-04
     29  0.139749D-04 -0.271031D-05 -0.352246D-05 -0.269011D-01  0.149005D+00
     30 -0.145229D-04  0.460139D-05  0.148164D-04  0.149005D+00 -0.192104D+00
     31  0.295215D-01  0.798916D-03  0.294918D-01  0.000000D+00  0.000000D+00
     32  0.243300D+00  0.781782D-01  0.169544D+00 -0.112616D-05 -0.189969D-05
     33  0.231875D+00  0.631374D-01  0.372698D-01  0.000000D+00 -0.194129D-05
     34  0.234119D+00  0.106505D+00  0.211647D+00 -0.194129D-05 -0.237144D-05
     35 -0.259809D-05  0.000000D+00 -0.194129D-05 -0.806148D-01 -0.135987D+00
     36  0.309818D+00  0.237514D+00  0.742415D-01  0.000000D+00  0.000000D+00
     37  0.283593D+00  0.217409D+00 -0.660049D-01  0.000000D+00  0.000000D+00
     38  0.323699D+00  0.366741D+00  0.352205D-01  0.000000D+00  0.000000D+00
     39 -0.317758D-05 -0.140853D-05  0.000000D+00 -0.794146D-01 -0.133962D+00
     40  0.256068D+00  0.497789D-01  0.393519D-01  0.000000D+00 -0.237332D-05
     41  0.240862D+00  0.104247D+00  0.271120D+00 -0.294640D-05 -0.303782D-05
     42  0.104247D+00  0.607961D-01  0.862311D-01  0.000000D+00  0.000000D+00
     43  0.271120D+00  0.862311D-01  0.872318D-01  0.000000D+00 -0.311918D-05
     44 -0.294640D-05  0.000000D+00  0.000000D+00 -0.277446D-01 -0.149357D+00
     45 -0.303782D-05  0.000000D+00 -0.311918D-05 -0.149357D+00 -0.191149D+00
     46  0.142792D-01  0.135914D-02 -0.188887D-02  0.000000D+00  0.000000D+00
     47  0.125068D+00  0.658957D-01 -0.865078D-02  0.000000D+00 -0.356594D-05
     48  0.144476D-01  0.137818D-02  0.193116D-02  0.000000D+00  0.000000D+00
     49  0.125578D+00  0.662424D-01  0.876750D-02  0.000000D+00 -0.171851D-05
     50  0.281634D-05  0.000000D+00 -0.821524D-05  0.000000D+00  0.000000D+00
     51  0.279384D-02  0.849909D-03 -0.586759D-02  0.000000D+00  0.000000D+00
     52  0.639430D-02  0.193395D-02 -0.121515D-01  0.000000D+00  0.000000D+00
     53 -0.215473D-02 -0.110976D-02  0.543984D-02  0.000000D+00  0.000000D+00
[...]
 136        5YZ         0.00000   0.00000   0.00000   0.00000   0.00000
 137 13  H  1S         -0.00151   0.01630  -0.00104   0.00072   0.00000
 138        2S         -0.00604   0.01824  -0.00395   0.00027   0.00000
 139 14  H  1S          0.00000   0.00000   0.00000   0.00000   0.00000
 140        2S          0.00000   0.00000   0.00000   0.00000   0.00000
                         136       137       138       139       140
 136        5YZ         0.00064
 137 13  H  1S          0.00000   0.21824
 138        2S          0.00000   0.12692   0.18851
 139 14  H  1S          0.00000   0.00000   0.00000   0.21825
 140        2S          0.00000   0.00000   0.00000   0.12692   0.18851
     Gross orbital populations:
                           1
   1 1   C  1S          1.99196
   2        2S          0.71213
   3        2PX         0.65992
   4        2PY         0.77933
   5        2PZ         0.59957
   6        3S          0.50528
   7        3PX         0.18478
   8        3PY         0.19158
   9        3PZ         0.42500
  10        4XX         0.00900
  11        4YY         0.00310
  12        4ZZ        -0.02398
  13        4XY         0.01175
  14        4XZ         0.00726
  15        4YZ         0.00635
  16 2   C  1S          1.99188
  17        2S          0.70966
  18        2PX         0.75378
  19        2PY         0.74207
  20        2PZ         0.58435
  21        3S          0.50561
  22        3PX         0.20461
  23        3PY         0.21026
  24        3PZ         0.43155
  25        4XX         0.00248
  26        4YY         0.01015
  27        4ZZ        -0.02480
  28        4XY         0.01364
  29        4XZ         0.00555
  30        4YZ         0.00307
  31 3   C  1S          1.99187
  32        2S          0.70971
  33        2PX         0.75357
  34        2PY         0.74699
  35        2PZ         0.58101
  36        3S          0.50831
  37        3PX         0.20291
  38        3PY         0.21581
  39        3PZ         0.42568
  40        4XX         0.00279
  41        4YY         0.00986
  42        4ZZ        -0.02475
  43        4XY         0.01359
  44        4XZ         0.00558
  45        4YZ         0.00306
  46 4   H  1S          0.53321
  47        2S          0.33339
  48 5   H  1S          0.53152
  49        2S          0.32182
  50 6   C  1S          1.99187
  51        2S          0.70971
  52        2PX         0.75355
  53        2PY         0.74701
  54        2PZ         0.58102
  55        3S          0.50832
  56        3PX         0.20292
  57        3PY         0.21580
  58        3PZ         0.42568
  59        4XX         0.00279
  60        4YY         0.00986
  61        4ZZ        -0.02475
  62        4XY         0.01359
  63        4XZ         0.00558
  64        4YZ         0.00306
  65 7   C  1S          1.99188
  66        2S          0.70967
  67        2PX         0.75380
  68        2PY         0.74205
  69        2PZ         0.58435
  70        3S          0.50561
  71        3PX         0.20461
  72        3PY         0.21026
  73        3PZ         0.43155
  74        4XX         0.00248
  75        4YY         0.01015
  76        4ZZ        -0.02480
  77        4XY         0.01364
  78        4XZ         0.00555
  79        4YZ         0.00307
  80 8   H  1S          0.53152
  81        2S          0.32182
  82 9   H  1S          0.53321
  83        2S          0.33339
  84 10  C  1S          1.99196
  85        2S          0.71213
  86        2PX         0.65993
  87        2PY         0.77933
  88        2PZ         0.59957
  89        3S          0.50528
  90        3PX         0.18479
  91        3PY         0.19158
  92        3PZ         0.42500
  93        4XX         0.00900
  94        4YY         0.00310
  95        4ZZ        -0.02398
  96        4XY         0.01175
  97        4XZ         0.00726
  98        4YZ         0.00635
  99 11  S  1S          1.99863
 100        2S          1.98825
 101        2PX         1.98727
 102        2PY         1.98837
 103        2PZ         1.99211
 104        3S          1.41132
 105        3PX         0.87674
 106        3PY         0.93172
 107        3PZ         1.24839
 108        4S          0.47778
 109        4PX         0.17491
 110        4PY         0.24014
 111        4PZ         0.67296
 112        5XX         0.01910
 113        5YY         0.02717
 114        5ZZ        -0.02688
 115        5XY         0.00720
 116        5XZ         0.00781
 117        5YZ         0.00070
 118 12  S  1S          1.99863
 119        2S          1.98825
 120        2PX         1.98727
 121        2PY         1.98837
 122        2PZ         1.99211
 123        3S          1.41132
 124        3PX         0.87671
 125        3PY         0.93174
 126        3PZ         1.24839
 127        4S          0.47778
 128        4PX         0.17490
 129        4PY         0.24017
 130        4PZ         0.67296
 131        5XX         0.01910
 132        5YY         0.02717
 133        5ZZ        -0.02688
 134        5XY         0.00720
 135        5XZ         0.00781
 136        5YZ         0.00070
 137 13  H  1S          0.50703
 138        2S          0.39643
 139 14  H  1S          0.50703
 140        2S          0.39643
          Condensed to atoms (all electrons):
               1          2          3          4          5          6
     1  C    4.947563   0.516925   0.544549  -0.051197  -0.047558  -0.028916
     2  C    0.516925   4.918370  -0.020936   0.363178   0.004747   0.532411
     3  C    0.544549  -0.020936   4.883247   0.004214   0.360835  -0.041477
     4  H   -0.051197   0.363178   0.004214   0.593731  -0.000184  -0.039141
     5  H   -0.047558   0.004747   0.360835  -0.000184   0.576923   0.000538
     6  C   -0.028916   0.532411  -0.041477  -0.039141   0.000538   4.883251
     7  C   -0.033076  -0.044609   0.532461   0.000769  -0.038589  -0.020937
     8  H    0.004700  -0.038589   0.000538  -0.006310   0.000015   0.360837
     9  H    0.005260   0.000769  -0.039141   0.000015  -0.006309   0.004214
    10  C   -0.037051  -0.033077  -0.028918   0.005260   0.004700   0.544603
    11  S    0.000770   0.004912   0.005281  -0.000213  -0.000191  -0.057400
    12  S    0.259073  -0.058297  -0.057398  -0.007470  -0.001604   0.005280
    13  H   -0.018008  -0.001818   0.002352   0.003945   0.000025   0.000395
    14  H    0.000004  -0.000121   0.000396   0.000001  -0.000008   0.002353
               7          8          9         10         11         12
     1  C   -0.033076   0.004700   0.005260  -0.037051   0.000770   0.259073
     2  C   -0.044609  -0.038589   0.000769  -0.033077   0.004912  -0.058297
     3  C    0.532461   0.000538  -0.039141  -0.028918   0.005281  -0.057398
     4  H    0.000769  -0.006310   0.000015   0.005260  -0.000213  -0.007470
     5  H   -0.038589   0.000015  -0.006309   0.004700  -0.000191  -0.001604
     6  C   -0.020937   0.360837   0.004214   0.544603  -0.057400   0.005280
     7  C    4.918352   0.004747   0.363177   0.516879  -0.058290   0.004913
     8  H    0.004747   0.576924  -0.000184  -0.047557  -0.001605  -0.000191
     9  H    0.363177  -0.000184   0.593731  -0.051196  -0.007472  -0.000213
    10  C    0.516879  -0.047557  -0.051196   4.947568   0.259068   0.000770
    11  S   -0.058290  -0.001605  -0.007472   0.259068  15.622714   0.000016
    12  S    0.004913  -0.000191  -0.000213   0.000770   0.000016  15.622719
    13  H   -0.000121  -0.000008   0.000001   0.000004   0.000000   0.256098
    14  H   -0.001819   0.000025   0.003946  -0.018009   0.256099   0.000000
              13         14
     1  C   -0.018008   0.000004
     2  C   -0.001818  -0.000121
     3  C    0.002352   0.000396
     4  H    0.003945   0.000001
     5  H    0.000025  -0.000008
     6  C    0.000395   0.002353
     7  C   -0.000121  -0.001819
     8  H   -0.000008   0.000025
     9  H    0.000001   0.003946
    10  C    0.000004  -0.018009
    11  S    0.000000   0.256099
    12  S    0.256098   0.000000
    13  H    0.660592   0.000000
    14  H    0.000000   0.660596
 Mulliken charges:
               1
     1  C   -0.063037
     2  C   -0.143866
     3  C   -0.146004
     4  H    0.133402
     5  H    0.146662
     6  C   -0.146012
     7  C   -0.143855
     8  H    0.146659
     9  H    0.133403
    10  C   -0.063044
    11  S   -0.023688
    12  S   -0.023696
    13  H    0.096540
    14  H    0.096537
 Sum of Mulliken charges =   0.00000
 Mulliken charges with hydrogens summed into heavy atoms:
               1
     1  C   -0.063037
     2  C   -0.010464
     3  C    0.000658
     6  C    0.000647
     7  C   -0.010453
    10  C   -0.063044
    11  S    0.072849
    12  S    0.072844
 Electronic spatial extent (au):  <R**2>=           1736.1116
 Charge=              0.0000 electrons
 Dipole moment (field-independent basis, Debye):
    X=              0.0001    Y=              0.0000    Z=              0.0007  Tot=              0.0007
 Quadrupole moment (field-independent basis, Debye-Ang):
   XX=            -62.9733   YY=            -52.6514   ZZ=            -66.7897
   XY=              7.6284   XZ=              0.0018   YZ=              0.0012
 Traceless Quadrupole moment (field-independent basis, Debye-Ang):
   XX=             -2.1685   YY=              8.1534   ZZ=             -5.9849
   XY=              7.6284   XZ=              0.0018   YZ=              0.0012
 Octapole moment (field-independent basis, Debye-Ang**2):
  XXX=              0.0058  YYY=              0.0008  ZZZ=              0.0008  XYY=             -0.0010
  XXY=              0.0009  XXZ=              0.0102  XZZ=              0.0001  YZZ=              0.0000
  YYZ=              0.0003  XYZ=              0.0072
 Hexadecapole moment (field-independent basis, Debye-Ang**3):
 XXXX=          -1942.6748 YYYY=           -302.0238 ZZZZ=            -79.2763 XXXY=            114.5131
 XXXZ=              0.0261 YYYX=              9.6242 YYYZ=              0.0009 ZZZX=              0.0022
 ZZZY=              0.0013 XXYY=           -340.6101 XXZZ=           -377.2350 YYZZ=            -73.9050
 XXYZ=              0.0156 YYXZ=              0.0010 ZZXY=              3.0981
 N-N= 4.534376912792D+02 E-N=-3.336574054651D+03  KE= 1.023748973361D+03
 Orbital energies and kinetic energies (alpha):
                                 1                 2
   1         O               -88.891871        120.978829
   2         O               -88.891870        120.978831
   3         O               -10.233197         15.883499
   4         O               -10.233190         15.882694
   5         O               -10.205831         15.878682
   6         O               -10.205821         15.878096
   7         O               -10.204396         15.883429
   8         O               -10.204390         15.881941
   9         O                -7.955103         18.498163
  10         O                -7.955098         18.498317
  11         O                -5.920206         17.497285
  12         O                -5.920205         17.497514
  13         O                -5.916229         17.505407
  14         O                -5.916227         17.505485
  15         O                -5.909661         17.526674
  16         O                -5.909659         17.527058
  17         O                -0.876915          1.538402
  18         O                -0.812782          1.834113
  19         O                -0.759970          1.597072
  20         O                -0.754313          2.088208
  21         O                -0.687310          2.108098
  22         O                -0.625682          1.434685
  23         O                -0.592112          1.520243
  24         O                -0.511640          1.287912
  25         O                -0.487636          1.418663
  26         O                -0.466488          1.353719
  27         O                -0.436742          1.252459
  28         O                -0.423747          1.552814
  29         O                -0.405532          1.665998
  30         O                -0.391195          0.977386
  31         O                -0.361476          1.408631
  32         O                -0.355415          1.888049
  33         O                -0.336257          1.827674
  34         O                -0.324531          1.316662
  35         O                -0.263764          1.125826
  36         O                -0.262296          1.711839
  37         O                -0.207332          1.664129
  38         V                -0.013240          1.357051
  39         V                -0.008581          1.488623
  40         V                 0.003613          1.370251
  41         V                 0.019612          1.365250
  42         V                 0.065888          1.871164
  43         V                 0.070671          1.698277
  44         V                 0.125536          1.167323
  45         V                 0.130548          0.994287
  46         V                 0.140595          1.629287
  47         V                 0.172798          1.192838
  48         V                 0.176883          1.287115
  49         V                 0.248296          1.404273
  50         V                 0.249764          1.541413
  51         V                 0.284896          1.390482
  52         V                 0.291276          1.766831
  53         V                 0.313139          1.445264
  54         V                 0.334950          2.002849
  55         V                 0.338616          1.855404
  56         V                 0.362983          2.201458
  57         V                 0.364914          2.255792
  58         V                 0.367185          2.556498
  59         V                 0.374126          2.407712
  60         V                 0.391184          2.262325
  61         V                 0.465161          1.665526
  62         V                 0.525308          2.020177
  63         V                 0.539942          1.743111
  64         V                 0.556356          2.482482
  65         V                 0.564839          3.021932
  66         V                 0.583699          2.133667
  67         V                 0.584432          2.030788
  68         V                 0.590297          2.504889
  69         V                 0.599502          2.126090
  70         V                 0.608601          2.014660
  71         V                 0.636354          2.281768
  72         V                 0.640038          2.205711
  73         V                 0.707462          2.327039
  74         V                 0.721588          2.325731
  75         V                 0.726629          2.087706
  76         V                 0.744546          2.417349
  77         V                 0.754251          2.308566
  78         V                 0.759432          2.272717
  79         V                 0.771075          2.280575
  80         V                 0.816243          2.677446
  81         V                 0.825232          2.693937
  82         V                 0.832485          2.431897
  83         V                 0.843552          2.234514
  84         V                 0.889068          2.575088
  85         V                 0.903351          2.706284
  86         V                 0.911490          2.255119
  87         V                 0.913505          2.684891
  88         V                 0.940379          2.321508
  89         V                 0.984740          2.524989
  90         V                 1.025746          2.323937
  91         V                 1.038622          2.743217
  92         V                 1.045910          2.641121
  93         V                 1.126870          2.492621
  94         V                 1.146751          2.418561
  95         V                 1.153015          2.601589
  96         V                 1.153632          2.837564
  97         V                 1.232899          2.718211
  98         V                 1.238701          2.398185
  99         V                 1.291411          2.575994
 100         V                 1.323001          2.731012
 101         V                 1.401478          2.982178
 102         V                 1.415642          2.587053
 103         V                 1.430605          2.521892
 104         V                 1.464082          2.667193
 105         V                 1.499494          2.692406
 106         V                 1.523321          2.727053
 107         V                 1.560642          2.791527
 108         V                 1.754456          2.968104
 109         V                 1.790163          3.217414
 110         V                 1.796011          3.451356
 111         V                 1.857243          3.325668
 112         V                 1.963619          3.509154
 113         V                 1.990039          3.456247
 114         V                 2.058364          3.659885
 115         V                 2.064680          3.700772
 116         V                 2.120497          3.529272
 117         V                 2.127736          3.331147
 118         V                 2.141739          3.368105
 119         V                 2.160262          3.547324
 120         V                 2.270302          3.546181
 121         V                 2.296951          3.556510
 122         V                 2.307363          3.554494
 123         V                 2.508103          4.078862
 124         V                 2.569571          3.984724
 125         V                 2.630806          3.924691
 126         V                 2.636052          4.539415
 127         V                 2.709942          4.545643
 128         V                 2.717383          4.567596
 129         V                 2.729292          4.566476
 130         V                 2.779599          4.224872
 131         V                 3.016005          4.939739
 132         V                 3.330968          5.512033
 133         V                 3.900268         12.688638
 134         V                 3.925025         12.454572
 135         V                 4.089917         10.369780
 136         V                 4.100891         10.196715
 137         V                 4.136592         10.435842
 138         V                 4.313693         10.148972
 139         V                 4.333092         10.251411
 140         V                 4.644062         10.403893
 Total kinetic energy from orbitals= 1.023748973361D+03

 Test job not archived.
 1\1\GINC-G19\SP\RB3LYP\6-31G(d)\C6H6S2\TORQUE\28-Aug-2019\0\\# b3lyp/6
 -31G(d) pop=full gfinput iop(3/33=1) scf=tight\\benzene-1,4-dithiol\\0
 ,1\C,0,1.40858,-0.001219,0.000041\C,0,0.698128,1.204938,0.000003\C,0,0
 .694594,-1.205621,0.000049\H,0,1.226634,2.154373,-0.000034\H,0,1.22491
 5,-2.154124,0.000077\C,0,-0.694627,1.205663,0.000022\C,0,-0.698099,-1.
 204901,0.000032\H,0,-1.224864,2.154214,-0.000004\H,0,-1.226668,-2.1543
 01,0.000059\C,0,-1.408582,0.001316,0.000021\S,0,-3.194797,0.083595,-0.
 000041\S,0,3.194788,-0.083665,-0.000082\H,0,3.417098,1.246439,0.000722
 \H,0,-3.416928,-1.24654,0.000143\\Version=ES64L-G16RevA.03\State=1-A\H
 F=-1028.6187736\RMSD=4.104e-09\Dipole=0.000055,0.0000178,0.0002808\Qua
 drupole=-1.6122443,6.0618527,-4.4496084,5.6715447,0.0013266,0.000898\P
 G=C01 [X(C6H6S2)]\\@


 IT IS A PROFOUNDLY ERRONEOUS TRUISM ... THAT WE SHOULD CULTIVATE
 THE HABIT OF THINKING OF WHAT WE ARE DOING.
 THE PRECISE OPPOSITE IS THE CASE.
 CIVILIZATION ADVANCES BY EXTENDING THE NUMBER OF IMPORTANT OPERATIONS
 WHICH WE CAN PERFORM WITHOUT THINKING ABOUT THEM.

                                    -- ALFRED NORTH WHITEHEAD
 Job cpu time:       0 days  0 hours  1 minutes 14.1 seconds.
 Elapsed time:       0 days  0 hours  0 minutes  2.9 seconds.
 File lengths (MBytes):  RWF=     15 Int=      0 D2E=      0 Chk=      2 Scr=      1
 Normal termination of Gaussian 16 at Wed Aug 28 11:19:05 2019.
